variables="x","y","T"
zone t="Temperature" n=1000 e=950 et=quadrilateral f=fepoint
4.7964248236289375e+00 0.0000000000000000e+00 3.7300000000000000e+02
5.0702972013326777e+00 0.0000000000000000e+00 3.7046577440005660e+02
5.3441695790364179e+00 0.0000000000000000e+00 3.6605545979618705e+02
5.6180419567401580e+00 0.0000000000000000e+00 3.6182648225584671e+02
5.8919143344438982e+00 0.0000000000000000e+00 3.5711671859811321e+02
6.1657867121476384e+00 0.0000000000000000e+00 3.5243509382561916e+02
6.4396590898513786e+00 0.0000000000000000e+00 3.4757301171641325e+02
6.7135314675551179e+00 0.0000000000000000e+00 3.4270675949259925e+02
6.9874038452588589e+00 0.0000000000000000e+00 3.3777885395285927e+02
7.2612762229625982e+00 0.0000000000000000e+00 3.3283520774260262e+02
7.5351486006663393e+00 0.0000000000000000e+00 3.2787668321405829e+02
7.8090209783700786e+00 0.0000000000000000e+00 3.2289979917221245e+02
8.0828933560738179e+00 0.0000000000000000e+00 3.1792556295746101e+02
8.3567657337775589e+00 0.0000000000000000e+00 3.1293490793950940e+02
8.6306381114813000e+00 0.0000000000000000e+00 3.0795188586341538e+02
8.9045104891850393e+00 0.0000000000000000e+00 3.0295684750905940e+02
9.1783828668887786e+00 0.0000000000000000e+00 2.9796866116273276e+02
9.4522552445925196e+00 0.0000000000000000e+00 2.9297473114724409e+02
9.7261276222962607e+00 0.0000000000000000e+00 2.8798389960133341e+02
1.0000000000000000e+01 0.0000000000000000e+00 2.8300000000000000e+02
4.7866504489398025e+00 6.0469457605334997e-01 3.7300000000000000e+02
5.0568871102137489e+00 6.3883340550543899e-01 3.6870650097011577e+02
5.3271237714876944e+00 6.7297223495752811e-01 3.6514482172634968e+02
5.5973604327616409e+00 7.0711106440961713e-01 3.6076766632922806e+02
5.8675970940355873e+00 7.4124989386170637e-01 3.5636325287422227e+02
6.1378337553095328e+00 7.7538872331379538e-01 3.5165788457898503e+02
6.4080704165834792e+00 8.0952755276588440e-01 3.4693317650630667e+02
6.6783070778574247e+00 8.4366638221797352e-01 3.4209911454364368e+02
6.9485437391313720e+00 8.7780521167006265e-01 3.3724371863446373e+02
7.2187804004053175e+00 9.1194404112215177e-01 3.3235434666722927e+02
7.4890170616792640e+00 9.4608287057424079e-01 3.2744307146655586e+02
7.7592537229532095e+00 9.8022170002632991e-01 3.2252723983902968e+02
8.0294903842271559e+00 1.0143605294784190e+00 3.1759183658628331e+02
8.2997270455011023e+00 1.0484993589305081e+00 3.1266217381371058e+02
8.5699637067750469e+00 1.0826381883825971e+00 3.0771732889514163e+02
8.8402003680489951e+00 1.1167770178346863e+00 3.0278007397583207e+02
9.1104370293229398e+00 1.1509158472867751e+00 2.9783344034358214e+02
9.3806736905968862e+00 1.1850546767388646e+00 2.9289190519337177e+02
9.6509103518708308e+00 1.2191935061909533e+00 2.8794800500700973e+02
9.9211470131447790e+00 1.2533323356430426e+00 2.8300000000000000e+02
4.7529148630993134e+00 1.2203411213870521e+00 3.7300000000000000e+02
5.0125420603723132e+00 1.2870020556113415e+00 3.6961676836194010e+02
5.2721692576453130e+00 1.3536629898356307e+00 3.6496372742633747e+02
5.5317964549183136e+00 1.4203239240599201e+00 3.6041083056260226e+02
5.7914236521913125e+00 1.4869848582842091e+00 3.5559507749001733e+02
6.0510508494643123e+00 1.5536457925084983e+00 3.5085083478398690e+02
6.3106780467373129e+00 1.6203067267327877e+00 3.4601654220805659e+02
6.5703052440103127e+00 1.6869676609570770e+00 3.4120335005346089e+02
6.8299324412833124e+00 1.7536285951813664e+00 3.3636485413361390e+02
7.0895596385563122e+00 1.8202895294056554e+00 3.3152252693961611e+02
7.3491868358293120e+00 1.8869504636299448e+00 3.2668063402950162e+02
7.6088140331023117e+00 1.9536113978542340e+00 3.2182604884369943e+02
7.8684412303753133e+00 2.0202723320785236e+00 3.1698075245403032e+02
8.1280684276483122e+00 2.0869332663028124e+00 3.1212173577111565e+02
8.3876956249213119e+00 2.1535942005271016e+00 3.0727315779939499e+02
8.6473228221943099e+00 2.2202551347513908e+00 3.0241369932658176e+02
8.9069500194673115e+00 2.2869160689756804e+00 2.9756207528645035e+02
9.1665772167403130e+00 2.3535770031999697e+00 2.9270481480727773e+02
9.4262044140133110e+00 2.4202379374242589e+00 2.8785045787740046e+02
9.6858316112863108e+00 2.4868988716485481e+00 2.8300000000000000e+02
4.8094221981837908e+00 1.9041849543944682e+00 3.7300000000000000e+02
5.0456507592731974e+00 1.9977144582077475e+00 3.6730227174247449e+02
5.2818793203626040e+00 2.0912439620210272e+00 3.6220048332705329e+02
5.5181078814520106e+00 2.1847734658343070e+00 3.5715429411956615e+02
5.7543364425414163e+00 2.2783029696475863e+00 3.5237979702171270e+02
5.9905650036308238e+00 2.3718324734608660e+00 3.4760465281168712e+02
6.2267935647202295e+00 2.4653619772741457e+00 3.4293131708945174e+02
6.4630221258096361e+00 2.5588914810874250e+00 3.3826469377523068e+02
6.6992506868990418e+00 2.6524209849007043e+00 3.3362916210136643e+02
6.9354792479884493e+00 2.7459504887139841e+00 3.2900863145527984e+02
7.1717078090778550e+00 2.8394799925272638e+00 3.2439044551107514e+02
7.4079363701672625e+00 2.9330094963405435e+00 3.1978952497493952e+02
7.6441649312566682e+00 3.0265390001538228e+00 3.1518060185652365e+02
7.8803934923460748e+00 3.1200685039671026e+00 3.1058716177576457e+02
8.1166220534354814e+00 3.2135980077803818e+00 3.0598372363654300e+02
8.3528506145248880e+00 3.3071275115936611e+00 3.0139161993931037e+02
8.5890791756142946e+00 3.4006570154069413e+00 2.9679156951646979e+02
8.8253077367037012e+00 3.4941865192202211e+00 2.9219706502882133e+02
9.0615362977931078e+00 3.5877160230335003e+00 2.8759950378797765e+02
9.2977648588825126e+00 3.6812455268467796e+00 2.8300000000000000e+02
4.5646971832834407e+00 2.5094635123613056e+00 3.7300000000000000e+02
4.7856640052389778e+00 2.6309410507116135e+00 3.6680269022844249e+02
5.0066308271945141e+00 2.7524185890619211e+00 3.6151197724067936e+02
5.2275976491500504e+00 2.8738961274122290e+00 3.5659719040325206e+02
5.4485644711055876e+00 2.9953736657625369e+00 3.5174692713744957e+02
5.6695312930611248e+00 3.1168512041128449e+00 3.4704572267526231e+02
5.8904981150166602e+00 3.2383287424631524e+00 3.4236681930132289e+02
6.1114649369721965e+00 3.3598062808134599e+00 3.3774336697575529e+02
6.3324317589277337e+00 3.4812838191637678e+00 3.3314159857503182e+02
6.5533985808832709e+00 3.6027613575140758e+00 3.2855338081110546e+02
6.7743654028388072e+00 3.7242388958643833e+00 3.2398668985936166e+02
6.9953322247943435e+00 3.8457164342146912e+00 3.1941629766710241e+02
7.2162990467498798e+00 3.9671939725649992e+00 3.1486485174715654e+02
7.4372658687054169e+00 4.0886715109153071e+00 3.1030419239509166e+02
7.6582326906609541e+00 4.2101490492656151e+00 3.0575817608704824e+02
7.8791995126164895e+00 4.3316265876159221e+00 3.0120311079868071e+02
8.1001663345720267e+00 4.4531041259662301e+00 2.9665708064787827e+02
8.3211331565275639e+00 4.5745816643165380e+00 2.9210494348234391e+02
8.5420999784830993e+00 4.6960592026668451e+00 2.8755404557058449e+02
8.7630668004386365e+00 4.8175367410171530e+00 2.8300000000000000e+02
3.9832013454707016e+00 2.8939651750926383e+00 3.7300000000000000e+02
4.1993575874853732e+00 3.0510118776101165e+00 3.6951044770068307e+02
4.4155138295000453e+00 3.2080585801275951e+00 3.6480209608291585e+02
4.6316700715147183e+00 3.3651052826450742e+00 3.5994844139487304e+02
4.8478263135293904e+00 3.5221519851625525e+00 3.5511527664773331e+02
5.0639825555440625e+00 3.6791986876800311e+00 3.5025510322821583e+02
5.2801387975587355e+00 3.8362453901975098e+00 3.4542980164800480e+02
5.4962950395734076e+00 3.9932920927149884e+00 3.4060749764092679e+02
5.7124512815880797e+00 4.1503387952324671e+00 3.3579244928880252e+02
5.9286075236027518e+00 4.3073854977499453e+00 3.3099072576455336e+02
6.1447637656174239e+00 4.4644322002674235e+00 3.2618110824339772e+02
6.3609200076320969e+00 4.6214789027849026e+00 3.2138721686684642e+02
6.5770762496467690e+00 4.7785256053023817e+00 3.1658043574978001e+02
6.7932324916614411e+00 4.9355723078198599e+00 3.1178795361479888e+02
7.0093887336761131e+00 5.0926190103373390e+00 3.0698321235326648e+02
7.2255449756907861e+00 5.2496657128548172e+00 3.0218937273399848e+02
7.4417012177054573e+00 5.4067124153722954e+00 2.9738709918638864e+02
7.6578574597201285e+00 5.5637591178897736e+00 2.9259132436517399e+02
7.8740137017348015e+00 5.7208058204072527e+00 2.8779389406388793e+02
8.0901699437494745e+00 5.8778525229247318e+00 2.8300000000000000e+02
3.5208498563219179e+00 3.3062980886848186e+00 3.7300000000000000e+02
3.7192096677899285e+00 3.4925703502954537e+00 3.6862676166392708e+02
3.9175694792579390e+00 3.6788426119060889e+00 3.6445090141822493e+02
4.1159292907259486e+00 3.8651148735167236e+00 3.5995652688003827e+02
4.3142891021939596e+00 4.0513871351273592e+00 3.5534956067155395e+02
4.5126489136619696e+00 4.2376593967379943e+00 3.5067143742905614e+02
4.7110087251299806e+00 4.4239316583486294e+00 3.4593847474873365e+02
4.9093685365979907e+00 4.6102039199592646e+00 3.4116644086460735e+02
5.1077283480660007e+00 4.7964761815698997e+00 3.3637652106157560e+02
5.3060881595340117e+00 4.9827484431805358e+00 3.3155532289038018e+02
5.5044479710020218e+00 5.1690207047911700e+00 3.2673405337702297e+02
5.7028077824700318e+00 5.3552929664018052e+00 3.2188660445447420e+02
5.9011675939380428e+00 5.5415652280124403e+00 3.1704608556355015e+02
6.0995274054060529e+00 5.7278374896230755e+00 3.1218488571397370e+02
6.2978872168740638e+00 5.9141097512337115e+00 3.0733189961096411e+02
6.4962470283420739e+00 6.1003820128443458e+00 3.0246436511326641e+02
6.6946068398100849e+00 6.2866542744549818e+00 2.9760318985963835e+02
6.8929666512780949e+00 6.4729265360656170e+00 2.9273428192802680e+02
7.0913264627461041e+00 6.6591987976762512e+00 2.8786781170760548e+02
7.2896862742141160e+00 6.8454710592868873e+00 2.8300000000000000e+02
3.0516418189187022e+00 3.6888012868989937e+00 3.7300000000000000e+02
3.2265154020012390e+00 3.9001871364178831e+00 3.6844758433594927e+02
3.4013889850837753e+00 4.1115729859367729e+00 3.6400794760267843e+02
3.5762625681663121e+00 4.3229588354556618e+00 3.5972399635185559e+02
3.7511361512488484e+00 4.5343446849745517e+00 3.5526399611759206e+02
3.9260097343313851e+00 4.7457305344934406e+00 3.5071514540685200e+02
4.1008833174139214e+00 4.9571163840123296e+00 3.4606045082000719e+02
4.2757569004964573e+00 5.1685022335312194e+00 3.4135368075726177e+02
4.4506304835789940e+00 5.3798880830501083e+00 3.3658134378940218e+02
4.6255040666615308e+00 5.5912739325689982e+00 3.3178914305217421e+02
4.8003776497440676e+00 5.8026597820878871e+00 3.2695227501740396e+02
4.9752512328266043e+00 6.0140456316067770e+00 3.2211222742600080e+02
5.1501248159091402e+00 6.2254314811256659e+00 3.1724052272546083e+02
5.3249983989916769e+00 6.4368173306445557e+00 3.1237257146376646e+02
5.4998719820742137e+00 6.6482031801634456e+00 3.0748276972694811e+02
5.6747455651567504e+00 6.8595890296823345e+00 3.0259814770587269e+02
5.8496191482392863e+00 7.0709748792012244e+00 2.9770001732253820e+02
6.0244927313218231e+00 7.2823607287201133e+00 2.9280488521778472e+02
6.1993663144043598e+00 7.4937465782390031e+00 2.8790333930818292e+02
6.3742398974868966e+00 7.7051324277578921e+00 2.8300000000000000e+02
2.4749208412176191e+00 3.8998512191404777e+00 3.7300000000000000e+02
2.6266759521951113e+00 4.1389790105025659e+00 3.7004775901831613e+02
2.7784310631726030e+00 4.3781068018646536e+00 3.6640538428022916e+02
2.9301861741500947e+00 4.6172345932267413e+00 3.6210174010428329e+02
3.0819412851275869e+00 4.8563623845888300e+00 3.5763672467253980e+02
3.2336963961050786e+00 5.0954901759509177e+00 3.5294740159957968e+02
3.3854515070825704e+00 5.3346179673130063e+00 3.4817973582661926e+02
3.5372066180600625e+00 5.5737457586750940e+00 3.4330458149693965e+02
3.6889617290375547e+00 5.8128735500371826e+00 3.3839661619979495e+02
3.8407168400150464e+00 6.0520013413992704e+00 3.3342547873515281e+02
3.9924719509925382e+00 6.2911291327613581e+00 3.2844476388945111e+02
4.1442270619700299e+00 6.5302569241234458e+00 3.2342244087178022e+02
4.2959821729475216e+00 6.7693847154855344e+00 3.1840127806072144e+02
4.4477372839250133e+00 7.0085125068476222e+00 3.1335192787067655e+02
4.5994923949025051e+00 7.2476402982097099e+00 3.0830762036435164e+02
4.7512475058799986e+00 7.4867680895717994e+00 3.0324536607844260e+02
4.9030026168574894e+00 7.7258958809338854e+00 2.9818832025859103e+02
5.0547577278349820e+00 7.9650236722959749e+00 2.9312266678597456e+02
5.2065128388124728e+00 8.2041514636580608e+00 2.8806090189850045e+02
5.3582679497899655e+00 8.4432792550201512e+00 2.8300000000000000e+02
2.0395323364101188e+00 4.3342268375235493e+00 3.7300000000000000e+02
2.1562828932122562e+00 4.5823344000044255e+00 3.6982624499326658e+02
2.2730334500143932e+00 4.8304419624853017e+00 3.6553038145035543e+02
2.3897840068165306e+00 5.0785495249661778e+00 3.6107954119872392e+02
2.5065345636186676e+00 5.3266570874470531e+00 3.5634779130407884e+02
2.6232851204208050e+00 5.5747646499279302e+00 3.5161607257482530e+02
2.7400356772229419e+00 5.8228722124088055e+00 3.4678333454922887e+02
2.8567862340250794e+00 6.0709797748896817e+00 3.4195798430147431e+02
2.9735367908272168e+00 6.3190873373705578e+00 3.3707780183108895e+02
3.0902873476293542e+00 6.5671948998514340e+00 3.3220733647961691e+02
3.2070379044314912e+00 6.8153024623323102e+00 3.2729997235625365e+02
3.3237884612336281e+00 7.0634100248131855e+00 3.2240389560734968e+02
3.4405390180357660e+00 7.3115175872940625e+00 3.1748122612744640e+02
3.5572895748379030e+00 7.5596251497749387e+00 3.1256953196884018e+02
3.6740401316400404e+00 7.8077327122558158e+00 3.0763918296947287e+02
3.7907906884421774e+00 8.0558402747366902e+00 3.0271784319057377e+02
3.9075412452443143e+00 8.3039478372175655e+00 2.9778517763642412e+02
4.0242918020464522e+00 8.5520553996984425e+00 2.9285841015791482e+02
4.1410423588485896e+00 8.8001629621793196e+00 2.8792767754720376e+02
4.2577929156507270e+00 9.0482705246601967e+00 2.8300000000000000e+02
1.5870976815901723e+00 4.8845844065190844e+00 3.7300000000000000e+02
1.6662067480196092e+00 5.1280570779102659e+00 3.6733180049148916e+02
1.7453158144490462e+00 5.3715297493014473e+00 3.6238618625166345e+02
1.8244248808784831e+00 5.6150024206926297e+00 3.5745877187318047e+02
1.9035339473079200e+00 5.8584750920838111e+00 3.5276481068642158e+02
1.9826430137373570e+00 6.1019477634749926e+00 3.4802416764118658e+02
2.0617520801667943e+00 6.3454204348661749e+00 3.4337409960266353e+02
2.1408611465962313e+00 6.5888931062573564e+00 3.3869087880153592e+02
2.2199702130256682e+00 6.8323657776485378e+00 3.3405420002628210e+02
2.2990792794551052e+00 7.0758384490397193e+00 3.2939243492778604e+02
2.3781883458845421e+00 7.3193111204309016e+00 3.2476081875977872e+02
2.4572974123139790e+00 7.5627837918220830e+00 3.2010881180391362e+02
2.5364064787434160e+00 7.8062564632132645e+00 3.1547847323632720e+02
2.6155155451728529e+00 8.0497291346044459e+00 3.1083184373312639e+02
2.6946246116022898e+00 8.2932018059956274e+00 3.0620060395192905e+02
2.7737336780317268e+00 8.5366744773868088e+00 3.0155733362225908e+02
2.8528427444611637e+00 8.7801471487779903e+00 2.9692345443292317e+02
2.9319518108906006e+00 9.0236198201691717e+00 2.9228195486996106e+02
3.0110608773200376e+00 9.2670924915603532e+00 2.8764330300507407e+02
3.0901699437494745e+00 9.5105651629515346e+00 2.8300000000000000e+02
9.7410384960214424e-01 5.1064312066835029e+00 3.7300000000000000e+02
1.0214569704576759e+00 5.3546649593468389e+00 3.6757646122601744e+02
1.0688100913132075e+00 5.6028987120101750e+00 3.6234564170535930e+02
1.1161632121687390e+00 5.8511324646735110e+00 3.5750970294954851e+02
1.1635163330242708e+00 6.0993662173368470e+00 3.5262315636687549e+02
1.2108694538798024e+00 6.3475999700001831e+00 3.4790888647699961e+02
1.2582225747353339e+00 6.5958337226635191e+00 3.4315924137090587e+02
1.3055756955908657e+00 6.8440674753268551e+00 3.3849509963103912e+02
1.3529288164463973e+00 7.0923012279901911e+00 3.3380937529930310e+02
1.4002819373019288e+00 7.3405349806535272e+00 3.2917422532989815e+02
1.4476350581574606e+00 7.5887687333168632e+00 3.2452235387143759e+02
1.4949881790129922e+00 7.8370024859801992e+00 3.1990409306922163e+02
1.5423412998685240e+00 8.0852362386435352e+00 3.1527175435885329e+02
1.5896944207240553e+00 8.3334699913068704e+00 3.1066257542002768e+02
1.6370475415795869e+00 8.5817037439702055e+00 3.0604201895799338e+02
1.6844006624351187e+00 8.8299374966335424e+00 3.0143659704687593e+02
1.7317537832906504e+00 9.0781712492968794e+00 2.9682309046070242e+02
1.7791069041461820e+00 9.3264050019602145e+00 2.9221751024991840e+02
1.8264600250017133e+00 9.5746387546235496e+00 2.8760772011874298e+02
1.8738131458572451e+00 9.8228725072868865e+00 2.8300000000000000e+02
3.2192072165112395e-01 5.1167833464532757e+00 3.7300000000000000e+02
3.3802516763228235e-01 5.3727561852864039e+00 3.6853859694471498e+02
3.5412961361344070e-01 5.6287290241195329e+00 3.6388742593804949e+02
3.7023405959459904e-01 5.8847018629526602e+00 3.5891152047997588e+02
3.8633850557575744e-01 6.1406747017857892e+00 3.5410256290190586e+02
4.0244295155691578e-01 6.3966475406189174e+00 3.4919473482562148e+02
4.1854739753807418e-01 6.6526203794520464e+00 3.4440682636682976e+02
4.3465184351923258e-01 6.9085932182851746e+00 3.3958327787700182e+02
4.5075628950039098e-01 7.1645660571183036e+00 3.3483191568182366e+02
4.6686073548154933e-01 7.4205388959514318e+00 3.3006143978780551e+02
4.8296518146270767e-01 7.6765117347845591e+00 3.2533731520124275e+02
4.9906962744386607e-01 7.9324845736176881e+00 3.2059908406589579e+02
5.1517407342502441e-01 8.1884574124508163e+00 3.1589215980942970e+02
5.3127851940618276e-01 8.4444302512839435e+00 3.1117385411215349e+02
5.4738296538734110e-01 8.7004030901170726e+00 3.0647669849615613e+02
5.6348741136849956e-01 8.9563759289502016e+00 3.0177108839067023e+02
5.7959185734965790e-01 9.2123487677833307e+00 2.9707872765410673e+02
5.9569630333081625e-01 9.4683216066164579e+00 2.9238170143059881e+02
6.1180074931197470e-01 9.7242944454495870e+00 2.8769122393239257e+02
6.2790519529313304e-01 9.9802672842827160e+00 2.8300000000000000e+02
-3.2402093190533254e-01 5.1501652325203322e+00 3.7300000000000000e+02
-3.4001484050469055e-01 5.4043811299815099e+00 3.6828577800005553e+02
-3.5600874910404851e-01 5.6585970274426884e+00 3.6324464639397672e+02
-3.7200265770340646e-01 5.9128129249038661e+00 3.5846078098453614e+02
-3.8799656630276447e-01 6.1670288223650447e+00 3.5353365041146304e+02
-4.0399047490212242e-01 6.4212447198262224e+00 3.4878271811003987e+02
-4.1998438350148037e-01 6.6754606172874009e+00 3.4396544669338471e+02
-4.3597829210083833e-01 6.9296765147485777e+00 3.3924409050811749e+02
-4.5197220070019634e-01 7.1838924122097572e+00 3.3448947323911347e+02
-4.6796610929955429e-01 7.4381083096709339e+00 3.2979207998864047e+02
-4.8396001789891230e-01 7.6923242071321134e+00 3.2507369509683679e+02
-4.9995392649827020e-01 7.9465401045932902e+00 3.2039245545266209e+02
-5.1594783509762820e-01 8.2007560020544688e+00 3.1569585171892635e+02
-5.3194174369698621e-01 8.4549718995156464e+00 3.1102426023799921e+02
-5.4793565229634411e-01 8.7091877969768241e+00 3.0634116781290260e+02
-5.6392956089570212e-01 8.9634036944380036e+00 3.0167435964408992e+02
-5.7992346949506013e-01 9.2176195918991812e+00 2.9699984835525999e+02
-5.9591737809441803e-01 9.4718354893603589e+00 2.9233442841463983e+02
-6.1191128669377604e-01 9.7260513868215366e+00 2.8766560001357203e+02
-6.2790519529313404e-01 9.9802672842827160e+00 2.8300000000000000e+02
-9.7582929546646557e-01 5.1154763106635386e+00 3.7300000000000000e+02
-1.0230916033817699e+00 5.3632340052226626e+00 3.6712397570432961e+02
-1.0703539112970741e+00 5.6109916997817857e+00 3.6216746456946129e+02
-1.1176162192123786e+00 5.8587493943409097e+00 3.5720939003255415e+02
-1.1648785271276829e+00 6.1065070889000328e+00 3.5255217394398124e+02
-1.2121408350429874e+00 6.3542647834591568e+00 3.4779464425248244e+02
-1.2594031429582917e+00 6.6020224780182799e+00 3.4316820253669056e+02
-1.3066654508735960e+00 6.8497801725774030e+00 3.3848157935561346e+02
-1.3539277587889005e+00 7.0975378671365279e+00 3.3386291791122818e+02
-1.4011900667042045e+00 7.3452955616956501e+00 3.2920745861167478e+02
-1.4484523746195090e+00 7.5930532562547750e+00 3.2459277464266449e+02
-1.4957146825348133e+00 7.8408109508138972e+00 3.1995343610230447e+02
-1.5429769904501178e+00 8.0885686453730212e+00 3.1534088994848025e+02
-1.5902392983654221e+00 8.3363263399321443e+00 3.1071090496778396e+02
-1.6375016062807262e+00 8.5840840344912674e+00 3.0609879903026820e+02
-1.6847639141960309e+00 8.8318417290503923e+00 3.0147451851175651e+02
-1.7320262221113354e+00 9.0795994236095154e+00 2.9686089040224329e+02
-1.7792885300266394e+00 9.3273571181686386e+00 2.9223946454426272e+02
-1.8265508379419437e+00 9.5751148127277617e+00 2.8762172620801857e+02
-1.8738131458572482e+00 9.8228725072868865e+00 2.8300000000000000e+02
-1.5470296317731058e+00 4.7612676292303799e+00 3.7300000000000000e+02
-1.6282475429297569e+00 5.0112306573209668e+00 3.6878314031413714e+02
-1.7094654540864078e+00 5.2611936854115537e+00 3.6406832308935640e+02
-1.7906833652430589e+00 5.5111567135021415e+00 3.5952355293529325e+02
-1.8719012763997100e+00 5.7611197415927284e+00 3.5471465996392379e+02
-1.9531191875563609e+00 6.0110827696833153e+00 3.5004323935337499e+02
-2.0343370987130123e+00 6.2610457977739022e+00 3.4524356609704239e+02
-2.1155550098696629e+00 6.5110088258644900e+00 3.4051455698832598e+02
-2.1967729210263141e+00 6.7609718539550769e+00 3.3571486478503499e+02
-2.2779908321829652e+00 7.0109348820456638e+00 3.3095555808621026e+02
-2.3592087433396163e+00 7.2608979101362507e+00 3.2615360404218734e+02
-2.4404266544962674e+00 7.5108609382268385e+00 3.2137780764025479e+02
-2.5216445656529185e+00 7.7608239663174254e+00 3.1657447682292764e+02
-2.6028624768095692e+00 8.0107869944080132e+00 3.1178930812821977e+02
-2.6840803879662203e+00 8.2607500224986001e+00 3.0698599688631839e+02
-2.7652982991228714e+00 8.5107130505891870e+00 3.0219508705182301e+02
-2.8465162102795225e+00 8.7606760786797739e+00 2.9739312074062468e+02
-2.9277341214361736e+00 9.0106391067703608e+00 2.9259845310465465e+02
-3.0089520325928247e+00 9.2606021348609477e+00 2.8779861326884850e+02
-3.0901699437494754e+00 9.5105651629515346e+00 2.8300000000000000e+02
-2.0410655105076376e+00 4.3374849983290584e+00 3.7300000000000000e+02
-2.1577353739362213e+00 4.5854210786622760e+00 3.7008071745211970e+02
-2.2744052373648049e+00 4.8333571589954936e+00 3.6624630506206887e+02
-2.3910751007933886e+00 5.0812932393287120e+00 3.6167828175194211e+02
-2.5077449642219722e+00 5.3292293196619287e+00 3.5715194433452552e+02
-2.6244148276505559e+00 5.5771653999951463e+00 3.5233418523070230e+02
-2.7410846910791395e+00 5.8251014803283647e+00 3.4755893991351257e+02
-2.8577545545077232e+00 6.0730375606615823e+00 3.4264389420184972e+02
-2.9744244179363069e+00 6.3209736409947999e+00 3.3775937087756290e+02
-3.0910942813648905e+00 6.5689097213280174e+00 3.3279997553583303e+02
-3.2077641447934742e+00 6.8168458016612350e+00 3.2786274178786505e+02
-3.3244340082220578e+00 7.0647818819944534e+00 3.2288177454261364e+02
-3.4411038716506415e+00 7.3127179623276701e+00 3.1791758869475933e+02
-3.5577737350792247e+00 7.5606540426608877e+00 3.1292637101607829e+02
-3.6744435985078083e+00 7.8085901229941053e+00 3.0794788261187642e+02
-3.7911134619363924e+00 8.0565262033273246e+00 3.0295293404112573e+02
-3.9077833253649761e+00 8.3044622836605413e+00 2.9796704151338764e+02
-4.0244531887935597e+00 8.5523983639937580e+00 2.9297311344639888e+02
-4.1411230522221434e+00 8.8003344443269782e+00 2.8798558405662294e+02
-4.2577929156507270e+00 9.0482705246601949e+00 2.8300000000000000e+02
-2.6566125600413684e+00 4.1861515562510236e+00 3.7300000000000000e+02
-2.7988049489755054e+00 4.4102109088178194e+00 3.6836699557544694e+02
-2.9409973379096419e+00 4.6342702613846152e+00 3.6377701530434251e+02
-3.0831897268437789e+00 4.8583296139514109e+00 3.5949633541595006e+02
-3.2253821157779159e+00 5.0823889665182085e+00 3.5485198959541214e+02
-3.3675745047120529e+00 5.3064483190850043e+00 3.5028678076691489e+02
-3.5097668936461894e+00 5.5305076716518000e+00 3.4553801057317577e+02
-3.6519592825803264e+00 5.7545670242185958e+00 3.4083702828001935e+02
-3.7941516715144630e+00 5.9786263767853915e+00 3.3603928718249887e+02
-3.9363440604486004e+00 6.2026857293521882e+00 3.3127343207538462e+02
-4.0785364493827370e+00 6.4267450819189849e+00 3.2645273697726526e+02
-4.2207288383168740e+00 6.6508044344857806e+00 3.2165427784944853e+02
-4.3629212272510101e+00 6.8748637870525755e+00 3.1682252887125816e+02
-4.5051136161851471e+00 7.0989231396193722e+00 3.1200685180363064e+02
-4.6473060051192849e+00 7.3229824921861688e+00 3.0717031264609409e+02
-4.7894983940534219e+00 7.5470418447529655e+00 3.0234507049543288e+02
-4.9316907829875580e+00 7.7711011973197612e+00 2.9750738076957805e+02
-5.0738831719216941e+00 7.9951605498865561e+00 2.9267614233623794e+02
-5.2160755608558311e+00 8.2192199024533537e+00 2.8783821077455087e+02
-5.3582679497899690e+00 8.4432792550201494e+00 2.8300000000000000e+02
-3.2043044658436450e+00 3.8733387266951467e+00 3.7300000000000000e+02
-3.3711431727722370e+00 4.0750120793826596e+00 3.6833816739715252e+02
-3.5379818797008293e+00 4.2766854320701722e+00 3.6403118934158891e+02
-3.7048205866294217e+00 4.4783587847576856e+00 3.5920066273256566e+02
-3.8716592935580141e+00 4.6800321374451981e+00 3.5457346908211588e+02
-4.0384980004866060e+00 4.8817054901327115e+00 3.4976146826158026e+02
-4.2053367074151984e+00 5.0833788428202240e+00 3.4506104598151057e+02
-4.3721754143437899e+00 5.2850521955077365e+00 3.4026234618558419e+02
-4.5390141212723831e+00 5.4867255481952508e+00 3.3552820438944985e+02
-4.7058528282009746e+00 5.6883989008827625e+00 3.3073717439783985e+02
-4.8726915351295679e+00 5.8900722535702768e+00 3.2598523048639788e+02
-5.0395302420581594e+00 6.0917456062577884e+00 3.2119833819565258e+02
-5.2063689489867517e+00 6.2934189589453027e+00 3.1643657938841051e+02
-5.3732076559153441e+00 6.4950923116328143e+00 3.1165225823171426e+02
-5.5400463628439356e+00 6.6967656643203268e+00 3.0688460655814362e+02
-5.7068850697725280e+00 6.8984390170078402e+00 3.0210248419038277e+02
-5.8737237767011212e+00 7.1001123696953545e+00 2.9733083985936776e+02
-6.0405624836297127e+00 7.3017857223828662e+00 2.9255124327458049e+02
-6.2074011905583042e+00 7.5034590750703787e+00 2.8777697022974252e+02
-6.3742398974868975e+00 7.7051324277578921e+00 2.8300000000000000e+02
-3.7368867618256645e+00 3.5091702465162218e+00 3.7300000000000000e+02
-3.9238762098461097e+00 3.6847650261357305e+00 3.6883546855499969e+02
-4.1108656578665546e+00 3.8603598057552388e+00 3.6351955930390693e+02
-4.2978551058869989e+00 4.0359545853747472e+00 3.5869099593739173e+02
-4.4848445539074442e+00 4.2115493649942559e+00 3.5371940892894088e+02
-4.6718340019278894e+00 4.3871441446137647e+00 3.4896985703329801e+02
-4.8588234499483338e+00 4.5627389242332734e+00 3.4414015015894421e+02
-5.0458128979687782e+00 4.7383337038527813e+00 3.3942905611158108e+02
-5.2328023459892234e+00 4.9139284834722909e+00 3.3466608730769235e+02
-5.4197917940096687e+00 5.0895232630917997e+00 3.2996992243506003e+02
-5.6067812420301131e+00 5.2651180427113076e+00 3.2524034075129123e+02
-5.7937706900505574e+00 5.4407128223308163e+00 3.2055060128633494e+02
-5.9807601380710027e+00 5.6163076019503251e+00 3.1583855750982246e+02
-6.1677495860914480e+00 5.7919023815698338e+00 3.1115150302830119e+02
-6.3547390341118932e+00 5.9674971611893426e+00 3.0644919401782710e+02
-6.5417284821323376e+00 6.1430919408088505e+00 3.0176249108371127e+02
-6.7287179301527820e+00 6.3186867204283592e+00 2.9706596505914479e+02
-6.9157073781732272e+00 6.4942815000478680e+00 2.9237809409011595e+02
-7.1026968261936716e+00 6.6698762796673758e+00 2.8768607124476762e+02
-7.2896862742141169e+00 6.8454710592868846e+00 2.8300000000000000e+02
-4.2772560024506951e+00 3.1076083889466335e+00 3.7300000000000000e+02
-4.4779356835716833e+00 3.2534107117875859e+00 3.6621862678241365e+02
-4.6786153646926723e+00 3.3992130346285387e+00 3.6130009405803287e+02
-4.8792950458136604e+00 3.5450153574694911e+00 3.5630302217212665e+02
-5.0799747269346494e+00 3.6908176803104440e+00 3.5163624194523430e+02
-5.2806544080556375e+00 3.8366200031513964e+00 3.4688325591646111e+02
-5.4813340891766256e+00 3.9824223259923492e+00 3.4229074249701279e+02
-5.6820137702976137e+00 4.1282246488333012e+00 3.3763664936490693e+02
-5.8826934514186018e+00 4.2740269716742540e+00 3.3307343615104458e+02
-6.0833731325395908e+00 4.4198292945152069e+00 3.2847103726211077e+02
-6.2840528136605789e+00 4.5656316173561589e+00 3.2392248999903916e+02
-6.4847324947815661e+00 4.7114339401971117e+00 3.1934874301729332e+02
-6.6854121759025551e+00 4.8572362630380645e+00 3.1480840000856409e+02
-6.8860918570235441e+00 5.0030385858790174e+00 3.1025102796307652e+02
-7.0867715381445313e+00 5.1488409087199694e+00 3.0571477607153787e+02
-7.2874512192655203e+00 5.2946432315609222e+00 3.0116686424282227e+02
-7.4881309003865084e+00 5.4404455544018751e+00 2.9663125440213429e+02
-7.6888105815074956e+00 5.5862478772428270e+00 2.9208796757620894e+02
-7.8894902626284846e+00 5.7320502000837799e+00 2.8754825906933911e+02
-8.0901699437494727e+00 5.8778525229247327e+00 2.8300000000000000e+02
-4.4142332170442993e+00 2.4267452469339608e+00 3.7300000000000000e+02
-4.6431191951176851e+00 2.5525763782014974e+00 3.6957522638470573e+02
-4.8720051731910718e+00 2.6784075094690336e+00 3.6462575089491514e+02
-5.1008911512644577e+00 2.8042386407365703e+00 3.5988110117355558e+02
-5.3297771293378435e+00 2.9300697720041060e+00 3.5492539729817429e+02
-5.5586631074112303e+00 3.0559009032716431e+00 3.5012706927531900e+02
-5.7875490854846161e+00 3.1817320345391789e+00 3.4522574378728285e+02
-6.0164350635580019e+00 3.3075631658067155e+00 3.4043080162225635e+02
-6.2453210416313878e+00 3.4333942970742517e+00 3.3557832295481211e+02
-6.4742070197047745e+00 3.5592254283417883e+00 3.3079265155235919e+02
-6.7030929977781604e+00 3.6850565596093245e+00 3.2597346547707241e+02