variables="x","y","T"
zone t="Temperature" n=1000 e=950 et=quadrilateral f=fepoint
4.7964286944604746e+00 0.0000000000000000e+00 3.7300000000000000e+02
5.0703008684362390e+00 0.0000000000000000e+00 3.7046332261445156e+02
5.3441730424120033e+00 0.0000000000000000e+00 3.6605410090622144e+02
5.6180452163877685e+00 0.0000000000000000e+00 3.6182522561942505e+02
5.8919173903635329e+00 0.0000000000000000e+00 3.5711589924264462e+02
6.1657895643392973e+00 0.0000000000000000e+00 3.5243445439641863e+02
6.4396617383150616e+00 0.0000000000000000e+00 3.4757254977865909e+02
6.7135339122908260e+00 0.0000000000000000e+00 3.4270646513356962e+02
6.9874060862665903e+00 0.0000000000000000e+00 3.3777857788809763e+02
7.2612782602423547e+00 0.0000000000000000e+00 3.3283508952102221e+02
7.5351504342181199e+00 0.0000000000000000e+00 3.2787651106349801e+02
7.8090226081938843e+00 0.0000000000000000e+00 3.2289976761054282e+02
8.0828947821696495e+00 0.0000000000000000e+00 3.1792545654395974e+02
8.3567669561454139e+00 0.0000000000000000e+00 3.1293491715054722e+02
8.6306391301211782e+00 0.0000000000000000e+00 3.0795182684639229e+02
8.9045113040969426e+00 0.0000000000000000e+00 3.0295687338245824e+02
9.1783834780727069e+00 0.0000000000000000e+00 2.9796864044734917e+02
9.4522556520484713e+00 0.0000000000000000e+00 2.9297475884569991e+02
9.7261278260242356e+00 0.0000000000000000e+00 2.8798390888125357e+02
1.0000000000000000e+01 0.0000000000000000e+00 2.8300000000000000e+02
4.7857517811087966e+00 6.0458104790482947e-01 3.7300000000000000e+02
5.0560357406896381e+00 6.3872585252263014e-01 3.6871205719870460e+02
5.3263197002704787e+00 6.7287065714043082e-01 3.6515324535689348e+02
5.5966036598513202e+00 7.0701546175823149e-01 3.6077775266070250e+02
5.8668876194321617e+00 7.4116026637603227e-01 3.5637384497240680e+02
6.1371715790130024e+00 7.7530507099383295e-01 3.5166848900637768e+02
6.4074555385938439e+00 8.0944987561163362e-01 3.4694347161552582e+02
6.6777394981746845e+00 8.4359468022943429e-01 3.4210881587306000e+02
6.9480234577555260e+00 8.7773948484723496e-01 3.3725284906797691e+02
7.2183074173363675e+00 9.1188428946503564e-01 3.3236264600238007e+02
7.4885913769172081e+00 9.4602909408283642e-01 3.2745069859249668e+02
7.7588753364980496e+00 9.8017389870063709e-01 3.2253394918810324e+02
8.0291592960788893e+00 1.0143187033184375e+00 3.1759782009693578e+02
8.2994432556597317e+00 1.0484635079362385e+00 3.1266721932789267e+02
8.5697272152405741e+00 1.0826083125540393e+00 3.0772161013942394e+02
8.8400111748214147e+00 1.1167531171718399e+00 3.0278342945615225e+02
9.1102951344022536e+00 1.1508979217896405e+00 2.9783599881619443e+02
9.3805790939830960e+00 1.1850427264074412e+00 2.9289356974250154e+02
9.6508630535639384e+00 1.2191875310252420e+00 2.8794884509199812e+02
9.9211470131447790e+00 1.2533323356430426e+00 2.8300000000000000e+02
4.7522953532744401e+00 1.2201820582992056e+00 3.7300000000000000e+02
5.0119551563276969e+00 1.2868513642649606e+00 3.6962265120498915e+02
5.2716149593809520e+00 1.3535206702307152e+00 3.6497147847767479e+02
5.5312747624342089e+00 1.4201899761964702e+00 3.6041917563899261e+02
5.7909345654874649e+00 1.4868592821622248e+00 3.5560346445468593e+02
6.0505943685407217e+00 1.5535285881279799e+00 3.5085897112548372e+02
6.3102541715939786e+00 1.6201978940937349e+00 3.4602421256410253e+02
6.5699139746472337e+00 1.6868672000594895e+00 3.4121059341241363e+02
6.8295737777004906e+00 1.7535365060252446e+00 3.3637145198660755e+02
7.0892335807537474e+00 1.8202058119909994e+00 3.3152865412813708e+02
7.3488933838070034e+00 1.8868751179567542e+00 3.2668605535346092e+02
7.6085531868602603e+00 1.9535444239225090e+00 3.2183097735858058e+02
7.8682129899135163e+00 2.0202137298882641e+00 3.1698496597347275e+02
8.1278727929667731e+00 2.0868830358540187e+00 3.1212543409858711e+02
8.3875325960200282e+00 2.1535523418197733e+00 3.0727615646400966e+02
8.6471923990732833e+00 2.2202216477855283e+00 3.0241615730645975e+02
8.9068522021265419e+00 2.2868909537512834e+00 2.9756386309306890e+02
9.1665120051797988e+00 2.3535602597170384e+00 2.9270603465637566e+02
9.4261718082330557e+00 2.4202295656827930e+00 2.8785104771530882e+02
9.6858316112863108e+00 2.4868988716485481e+00 2.8300000000000000e+02
4.8097621071773604e+00 1.9043195338854646e+00 3.7300000000000000e+02
5.0459727783197375e+00 1.9978419545676391e+00 3.6729914482120643e+02
5.2821834494621136e+00 2.0913643752498134e+00 3.6219691507104233e+02
5.5183941206044906e+00 2.1848867959319880e+00 3.5715031168219821e+02
5.7546047917468668e+00 2.2784092166141625e+00 3.5237575006655408e+02
5.9908154628892429e+00 2.3719316372963370e+00 3.4760061763503194e+02
6.2270261340316191e+00 2.4654540579785111e+00 3.4292750192385967e+02
6.4632368051739952e+00 2.5589764786606857e+00 3.3826099584886470e+02
6.6994474763163723e+00 2.6524988993428602e+00 3.3362581799431047e+02
6.9356581474587484e+00 2.7460213200250347e+00 3.2900544579388958e+02
7.1718688186011246e+00 2.8395437407072093e+00 3.2438766699930926e+02
7.4080794897435016e+00 2.9330661613893838e+00 3.1978693509172609e+02
7.6442901608858778e+00 3.0265885820715583e+00 3.1517843043920624e+02
7.8805008320282548e+00 3.1201110027537329e+00 3.1058520858842087e+02
8.1167115031706309e+00 3.2136334234359074e+00 3.0598217728648575e+02
8.3529221743130080e+00 3.3071558441180819e+00 3.0139032225391247e+02
8.5891328454553832e+00 3.4006782648002565e+00 2.9679065256271798e+02
8.8253435165977603e+00 3.4942006854824306e+00 2.9219642712827925e+02
9.0615541877401373e+00 3.5877231061646051e+00 2.8759920926627626e+02
9.2977648588825126e+00 3.6812455268467796e+00 2.8300000000000000e+02
4.5650243232729615e+00 2.5096433590924629e+00 3.7300000000000000e+02
4.7859739273343127e+00 2.6311114318253410e+00 3.6680166692945573e+02
5.0069235313956639e+00 2.7525795045582195e+00 3.6150895579227711e+02
5.2278731354570160e+00 2.8740475772910985e+00 3.5659365779687397e+02
5.4488227395183664e+00 2.9955156500239766e+00 3.5174305878785947e+02
5.6697723435797176e+00 3.1169837227568551e+00 3.4704189044504267e+02
5.8907219476410688e+00 3.2384517954897336e+00 3.4236298367330215e+02
6.1116715517024200e+00 3.3599198682226117e+00 3.3773981181566751e+02
6.3326211557637713e+00 3.4813879409554902e+00 3.3313814935728806e+02
6.5535707598251225e+00 3.6028560136883687e+00 3.2855031281208386e+02
6.7745203638864746e+00 3.7243240864212472e+00 3.2398378186434832e+02
6.9954699679478258e+00 3.8457921591541258e+00 3.1941380452969202e+02
7.2164195720091779e+00 3.9672602318870047e+00 3.1486255704726551e+02
7.4373691760705292e+00 4.0887283046198828e+00 3.1030231244766890e+02
7.6583187801318804e+00 4.2101963773527613e+00 3.0575652791610668e+02
7.8792683841932316e+00 4.3316644500856398e+00 3.0120185800553480e+02
8.1002179882545828e+00 4.4531325228185183e+00 2.9665609059540168e+02
8.3211675923159341e+00 4.5746005955513969e+00 2.9210431603121674e+02
8.5421171963772853e+00 4.6960686682842745e+00 2.8755370891016582e+02
8.7630668004386365e+00 4.8175367410171530e+00 2.8300000000000000e+02
3.9831647058722086e+00 2.8939385548661241e+00 3.7300000000000000e+02
4.1993228762868018e+00 3.0509866584481564e+00 3.6951008977130971e+02
4.4154810467013945e+00 3.2080347620301883e+00 3.6480312254513541e+02
4.6316392171159873e+00 3.3650828656122198e+00 3.5994936863380303e+02
4.8477973875305809e+00 3.5221309691942522e+00 3.5511629894404388e+02
5.0639555579451736e+00 3.6791790727762841e+00 3.5025594997253148e+02
5.2801137283597663e+00 3.8362271763583156e+00 3.4543068926060369e+02
5.4962718987743591e+00 3.9932752799403479e+00 3.4060818217127758e+02
5.7124300691889527e+00 4.1503233835223803e+00 3.3579319128958167e+02
5.9285882396035454e+00 4.3073714871044118e+00 3.3099126684950909e+02
6.1447464100181381e+00 4.4644195906864441e+00 3.2618171066670072e+02
6.3609045804327309e+00 4.6214676942684756e+00 3.2138763426432376e+02
6.5770627508473245e+00 4.7785157978505080e+00 3.1658090382746883e+02
6.7932209212619172e+00 4.9355639014325394e+00 3.1178826032352998e+02
7.0093790916765100e+00 5.0926120050145718e+00 3.0698354919574717e+02
7.2255372620911018e+00 5.2496601085966033e+00 3.0218957724951031e+02
7.4416954325056954e+00 5.4067082121786356e+00 2.9738730678388993e+02
7.6578536029202899e+00 5.5637563157606680e+00 2.9259143335948920e+02
7.8740117733348818e+00 5.7208044193426995e+00 2.8779397554085062e+02
8.0901699437494745e+00 5.8778525229247318e+00 2.8300000000000000e+02
3.5201870559524999e+00 3.3056756777090559e+00 3.7300000000000000e+02
3.7185817516504795e+00 3.4919806977920995e+00 3.6863416630330124e+02
3.9169764473484596e+00 3.6782857178751436e+00 3.6446012735615352e+02
4.1153711430464393e+00 3.8645907379581872e+00 3.5996708611496751e+02
4.3137658387444189e+00 4.0508957580412313e+00 3.5536027170843244e+02
4.5121605344423985e+00 4.2372007781242749e+00 3.5068215019201705e+02
4.7105552301403781e+00 4.4235057982073185e+00 3.4594863760239093e+02
4.9089499258383587e+00 4.6098108182903621e+00 3.4117618417264464e+02
5.1073446215363383e+00 4.7961158383734066e+00 3.3638545195870148e+02
5.3057393172343179e+00 4.9824208584564502e+00 3.3156366252378933e+02
5.5041340129322975e+00 5.1687258785394929e+00 3.2674148427893647e+02
5.7025287086302781e+00 5.3550308986225374e+00 3.2189335818156314e+02
5.9009234043282577e+00 5.5413359187055820e+00 3.1705190308608320e+02
6.0993181000262373e+00 5.7276409387886247e+00 3.1218997282354582e+02
6.2977127957242169e+00 5.9139459588716683e+00 3.0733605563654066e+02
6.4961074914221975e+00 6.1002509789547137e+00 3.0246775116251905e+02
6.6945021871201762e+00 6.2865559990377555e+00 2.9760566866558315e+02
6.8928968828181567e+00 6.4728610191208000e+00 2.9273595840021500e+02
7.0912915785161363e+00 6.6591660392038436e+00 2.8786861842926078e+02
7.2896862742141160e+00 6.8454710592868873e+00 2.8300000000000000e+02
3.0514234793826849e+00 3.6885373597380635e+00 3.7300000000000000e+02
3.2263085540197487e+00 3.8999371001601602e+00 3.6844686033064977e+02
3.4011936286568125e+00 4.1113368405822559e+00 3.6400921111545046e+02
3.5760787032938763e+00 4.3227365810043530e+00 3.5972610432389411e+02
3.7509637779309397e+00 4.5341363214264483e+00 3.5526692385484330e+02
3.9258488525680040e+00 4.7455360618485454e+00 3.5071822399673971e+02
4.1007339272050674e+00 4.9569358022706407e+00 3.4606380754787034e+02
4.2756190018421316e+00 5.1683355426927378e+00 3.4135683681561767e+02
4.4505040764791950e+00 5.3797352831148340e+00 3.3658453035057482e+02
4.6253891511162584e+00 5.5911350235369301e+00 3.3179198830020471e+02
4.8002742257533217e+00 5.8025347639590255e+00 3.2695502859422999e+02
4.9751593003903860e+00 6.0139345043811225e+00 3.2211459115841961e+02
5.1500443750274503e+00 6.2253342448032187e+00 3.1724272525209341e+02
5.3249294496645136e+00 6.4367339852253149e+00 3.1237437769557562e+02
5.4998145243015770e+00 6.6481337256474102e+00 3.0748436735310759e+02
5.6746995989386404e+00 6.8595334660695064e+00 3.0259936417395073e+02
5.8495846735757047e+00 7.0709332064916035e+00 2.9770098691771818e+02
6.0244697482127698e+00 7.2823329469137006e+00 2.9280550147092146e+02
6.1993548228498332e+00 7.4937326873357968e+00 2.8790367413971722e+02
6.3742398974868966e+00 7.7051324277578921e+00 2.8300000000000000e+02
2.4749553327846421e+00 3.8999055691534008e+00 3.7300000000000000e+02
2.6267086284165013e+00 4.1390304999884933e+00 3.7004737935468125e+02
2.7784619240483601e+00 4.3781554308235853e+00 3.6640443333764250e+02
2.9302152196802194e+00 4.6172803616586773e+00 3.6210087450349675e+02
3.0819685153120786e+00 4.8564052924937693e+00 3.5763565937095592e+02
3.2337218109439378e+00 5.0955302233288613e+00 3.5294659216928932e+02
3.3854751065757966e+00 5.3346551541639533e+00 3.4817879231202375e+02
3.5372284022076554e+00 5.5737800849990453e+00 3.4330389590337717e+02
3.6889816978395147e+00 5.8129050158341373e+00 3.3839582598015380e+02
3.8407349934713739e+00 6.0520299466692293e+00 3.3342491907424608e+02
3.9924882891032332e+00 6.2911548775043213e+00 3.2844412412729895e+02
4.1442415847350924e+00 6.5302798083394133e+00 3.2342200223734568e+02
4.2959948803669512e+00 6.7694047391745054e+00 3.1840078415342845e+02
4.4477481759988109e+00 7.0085296700095983e+00 3.1335160557314759e+02
4.5995014716306697e+00 7.2476546008446903e+00 3.0830726950233600e+02
4.7512547672625285e+00 7.4867795316797823e+00 3.0324515553039572e+02
4.9030080628943882e+00 7.7259044625148743e+00 2.9818811003701609e+02
5.0547613585262470e+00 7.9650293933499663e+00 2.9312256203709620e+02
5.2065146541581067e+00 8.2041543241850583e+00 2.8806082716506393e+02
5.3582679497899655e+00 8.4432792550201512e+00 2.8300000000000000e+02
2.0397073685271647e+00 4.3345987997060487e+00 3.7300000000000000e+02
2.1564487131126158e+00 4.5826867852299511e+00 3.6982503288108938e+02
2.2731900576980659e+00 4.8307747707538535e+00 3.6552750059590812e+02
2.3899314022835165e+00 5.0788627562777560e+00 3.6107561203313259e+02
2.5066727468689671e+00 5.3269507418016584e+00 3.5634367287052555e+02
2.6234140914544182e+00 5.5750387273255617e+00 3.5161156355879808e+02
2.7401554360398688e+00 5.8231267128494641e+00 3.4677909615428428e+02
2.8568967806253189e+00 6.0712146983733657e+00 3.4195369354201290e+02
2.9736381252107700e+00 6.3193026838972690e+00 3.3707393714993390e+02
3.0903794697962206e+00 6.5673906694211714e+00 3.3220358648549853e+02
3.2071208143816707e+00 6.8154786549450730e+00 3.2729669765649408e+02
3.3238621589671218e+00 7.0635666404689763e+00 3.2240082537310900e+02
3.4406035035525724e+00 7.3116546259928787e+00 3.1747863802815169e+02
3.5573448481380230e+00 7.5597426115167812e+00 3.1256720397155419e+02
3.6740861927234736e+00 7.8078305970406836e+00 3.0763732360670912e+02
3.7908275373089237e+00 8.0559185825645852e+00 3.0271628486001339e+02
3.9075688818943743e+00 8.3040065680884876e+00 2.9778406246787983e+02
4.0243102264798249e+00 8.5520945536123900e+00 2.9285763109703339e+02
4.1410515710652760e+00 8.8001825391362924e+00 2.8792730854496386e+02
4.2577929156507270e+00 9.0482705246601967e+00 2.8300000000000000e+02
1.5872131719470173e+00 4.8849398492890490e+00 3.7300000000000000e+02
1.6663161599366201e+00 5.1283938131660216e+00 3.6732839433388074e+02
1.7454191479262231e+00 5.3718477770429942e+00 3.6238222718489698e+02
1.8245221359158263e+00 5.6153017409199686e+00 3.5745463195113462e+02
1.9036251239054294e+00 5.8587557047969412e+00 3.5276027811967521e+02
1.9827281118950324e+00 6.1022096686739138e+00 3.4801995025996263e+02
2.0618310998846354e+00 6.3456636325508864e+00 3.4336976892373161e+02
2.1409340878742382e+00 6.5891175964278599e+00 3.3868698699349596e+02
2.2200370758638415e+00 6.8325715603048325e+00 3.3405036453854262e+02
2.2991400638534443e+00 7.0760255241818051e+00 3.2938907070962517e+02
2.3782430518430475e+00 7.3194794880587786e+00 3.2475760839797243e+02
2.4573460398326503e+00 7.5629334519357521e+00 3.2010607270123234e+02
2.5364490278222536e+00 7.8063874158127255e+00 3.1547594821574944e+02
2.6155520158118568e+00 8.0498413796896990e+00 3.1082977513614810e+02
2.6946550038014596e+00 8.2932953435666708e+00 3.0619879250257435e+02
2.7737579917910624e+00 8.5367493074436442e+00 3.0155595474281114e+02
2.8528609797806657e+00 8.7802032713206160e+00 2.9692236860761938e+02
2.9319639677702685e+00 9.0236572351975894e+00 2.9228127074591038e+02
3.0110669557598717e+00 9.2671111990745629e+00 2.8764294501718365e+02
3.0901699437494745e+00 9.5105651629515346e+00 2.8300000000000000e+02
9.7408827551953714e-01 5.1063495644833692e+00 3.7300000000000000e+02
1.0214422160636270e+00 5.3545876141046067e+00 3.6757828896329863e+02
1.0687961566077169e+00 5.6028256637258451e+00 3.6234695080500632e+02
1.1161500971518068e+00 5.8510637133470826e+00 3.5751065816983100e+02
1.1635040376958967e+00 6.0993017629683202e+00 3.5262430575011547e+02
1.2108579782399864e+00 6.3475398125895577e+00 3.4790963396011330e+02
1.2582119187840766e+00 6.5957778622107961e+00 3.4316018526892680e+02
1.3055658593281665e+00 6.8440159118320336e+00 3.3849572654972440e+02
1.3529197998722562e+00 7.0922539614532711e+00 3.3381014847030406e+02
1.4002737404163461e+00 7.3404920110745087e+00 3.2917474625866720e+02
1.4476276809604360e+00 7.5887300606957471e+00 3.2452297670039417e+02
1.4949816215045260e+00 7.8369681103169855e+00 3.1990450833784644e+02
1.5423355620486159e+00 8.0852061599382221e+00 3.1527223534973047e+02
1.5896895025927056e+00 8.3334442095594596e+00 3.1066288369909103e+02
1.6370434431367955e+00 8.5816822591806972e+00 3.0604236049296372e+02
1.6843973836808857e+00 8.8299203088019365e+00 3.0143679791886683e+02
1.7317513242249754e+00 9.0781583584231740e+00 2.9682329262222254e+02
1.7791052647690653e+00 9.3263964080444115e+00 2.9221760452466577e+02
1.8264592053131554e+00 9.5746344576656490e+00 2.8760778177252428e+02
1.8738131458572451e+00 9.8228725072868865e+00 2.8300000000000000e+02
3.2190511044564085e-01 5.1165352134476576e+00 3.7300000000000000e+02
3.3801037806919304e-01 5.3725211119126604e+00 3.6853858823332774e+02
3.5411564569274528e-01 5.6285070103776631e+00 3.6388875153029670e+02
3.7022091331629747e-01 5.8844929088426667e+00 3.5891361259035727e+02
3.8632618093984972e-01 6.1404788073076695e+00 3.5410455250609925e+02
4.0243144856340191e-01 6.3964647057726722e+00 3.4919716366863508e+02
4.1853671618695421e-01 6.6524506042376768e+00 3.4440895462895463e+02
4.3464198381050645e-01 6.9084365027026795e+00 3.3958560266118752e+02
4.5074725143405864e-01 7.1644224011676823e+00 3.3483390540423994e+02
4.6685251905761088e-01 7.4204082996326859e+00 3.3006348416089969e+02
4.8295778668116307e-01 7.6763941980976886e+00 3.2533902740186073e+02
4.9906305430471531e-01 7.9323800965626914e+00 3.2060076770892005e+02
5.1516832192826756e-01 8.1883659950276950e+00 3.1589352612342367e+02
5.3127358955181969e-01 8.4443518934926978e+00 3.1117513780295832e+02
5.4737885717537194e-01 8.7003377919577005e+00 3.0647768643596936e+02
5.6348412479892418e-01 8.9563236904227033e+00 3.0177195276348323e+02
5.7958939242247642e-01 9.2123095888877060e+00 2.9707932370478096e+02
5.9569466004602856e-01 9.4682954873527088e+00 2.9238213900429054e+02
6.1179992766958080e-01 9.7242813858177133e+00 2.8769142837100850e+02
6.2790519529313304e-01 9.9802672842827160e+00 2.8300000000000000e+02
-3.2399627883911891e-01 5.1497733832538604e+00 3.7300000000000000e+02
-3.3999148496827758e-01 5.4040099043606418e+00 3.6828872803574325e+02
-3.5598669109743630e-01 5.6582464254674241e+00 3.6324828850870523e+02
-3.7198189722659497e-01 5.9124829465742055e+00 3.5846453119877197e+02
-3.8797710335575369e-01 6.1667194676809878e+00 3.5353800214968203e+02
-4.0397230948491236e-01 6.4209559887877701e+00 3.4878671008655516e+02
-4.1996751561407103e-01 6.6751925098945515e+00 3.4396965400216590e+02
-4.3596272174322975e-01 6.9294290310013338e+00 3.3924783219059782e+02
-4.5195792787238842e-01 7.1836655521081152e+00 3.3449320837633263e+02
-4.6795313400154709e-01 7.4379020732148966e+00 3.2979533560524413e+02
-4.8394834013070581e-01 7.6921385943216789e+00 3.2507682362744589e+02
-4.9994354625986448e-01 7.9463751154284603e+00 3.2039511484205599e+02
-5.1593875238902320e-01 8.2006116365352426e+00 3.1569831364949658e+02
-5.3193395851818193e-01 8.4548481576420240e+00 3.1102627234555064e+02
-5.4792916464734065e-01 8.7090846787488072e+00 3.0634293507575001e+02
-5.6392437077649926e-01 8.9633211998555868e+00 3.0167570231015065e+02
-5.7991957690565799e-01 9.2175577209623700e+00 2.9700090829440779e+02
-5.9591478303481660e-01 9.4717942420691514e+00 2.9233509325716176e+02
-6.1190998916397532e-01 9.7260307631759328e+00 2.8766594516087889e+02
-6.2790519529313404e-01 9.9802672842827160e+00 2.8300000000000000e+02
-9.7581762793064686e-01 5.1154151472988385e+00 3.7300000000000000e+02
-1.0230805499267839e+00 5.3631760609824193e+00 3.6712368606936320e+02
-1.0703434719229206e+00 5.6109369746660009e+00 3.6216741013772440e+02
-1.1176063939190575e+00 5.8586978883495826e+00 3.5721005163293552e+02
-1.1648693159151946e+00 6.1064588020331643e+00 3.5255247624796641e+02
-1.2121322379113315e+00 6.3542197157167459e+00 3.4779539025787176e+02
-1.2593951599074684e+00 6.6019806294003267e+00 3.4316860057309026e+02
-1.3066580819036051e+00 6.8497415430839084e+00 3.3848224884811350e+02
-1.3539210038997420e+00 7.0975024567674891e+00 3.3386331139169869e+02
-1.4011839258958791e+00 7.3452633704510717e+00 3.2920802296380521e+02
-1.4484468478920161e+00 7.5930242841346525e+00 3.2459311898343839e+02
-1.4957097698881530e+00 7.8407851978182341e+00 3.1995388991158103e+02
-1.5429726918842896e+00 8.0885461115018149e+00 3.1534116436967287e+02
-1.5902356138804266e+00 8.3363070251853966e+00 3.1071124627373780e+02
-1.6374985358765637e+00 8.5840679388689782e+00 3.0609899508620293e+02
-1.6847614578727008e+00 8.8318288525525617e+00 3.0147474712387185e+02
-1.7320243798688375e+00 9.0795897662361416e+00 2.9686100780731914e+02
-1.7792873018649742e+00 9.3273506799197214e+00 2.9223958417848945e+02
-1.8265502238611111e+00 9.5751115936033031e+00 2.8762177268205755e+02
-1.8738131458572482e+00 9.8228725072868865e+00 2.8300000000000000e+02
-1.5471340690098327e+00 4.7615890539945225e+00 3.7300000000000000e+02
-1.6283464834698140e+00 5.0115351649922601e+00 3.6878192600954628e+02
-1.7095588979297951e+00 5.2614812759899969e+00 3.6406652415236886e+02
-1.7907713123897764e+00 5.5114273869877346e+00 3.5952034860940967e+02
-1.8719837268497577e+00 5.7613734979854723e+00 3.5471157221265042e+02
-1.9531961413097387e+00 6.0113196089832099e+00 3.5003954149913648e+02
-2.0344085557697200e+00 6.2612657199809476e+00 3.4524024889222773e+02
-2.1156209702297013e+00 6.5112118309786853e+00 3.4051104432735002e+02
-2.1968333846896821e+00 6.7611579419764221e+00 3.3571179038817263e+02
-2.2780457991496634e+00 7.0111040529741597e+00 3.3095249449639340e+02
-2.3592582136096447e+00 7.2610501639718974e+00 3.2615097908975929e+02
-2.4404706280696260e+00 7.5109962749696351e+00 3.2137530039943329e+02
-2.5216830425296073e+00 7.7609423859673736e+00 3.1657239182506606e+02
-2.6028954569895886e+00 8.0108884969651104e+00 3.1178740272603272e+02
-2.6841078714495694e+00 8.2608346079628472e+00 3.0698448985684598e+02
-2.7653202859095511e+00 8.5107807189605857e+00 3.0219380217830684e+02
-2.8465327003695320e+00 8.7607268299583225e+00 2.9739220543738168e+02
-2.9277451148295137e+00 9.0106729409560611e+00 2.9259779601215706e+02
-3.0089575292894946e+00 9.2606190519537979e+00 2.8779829583437987e+02
-3.0901699437494754e+00 9.5105651629515346e+00 2.8300000000000000e+02
-2.0416214135241075e+00 4.3386663523728419e+00 3.7300000000000000e+02
-2.1582620188991930e+00 4.5865402561774387e+00 3.7007206078663569e+02
-2.2749026242742785e+00 4.8344141599820372e+00 3.6623220379680208e+02
-2.3915432296493635e+00 5.0822880637866339e+00 3.6166333110436653e+02
-2.5081838350244490e+00 5.3301619675912324e+00 3.5713597334528089e+02
-2.6248244403995340e+00 5.5780358713958291e+00 3.5231898057255802e+02
-2.7414650457746190e+00 5.8259097752004267e+00 3.4754396380207635e+02
-2.8581056511497045e+00 6.0737836790050244e+00 3.4263009979250262e+02
-2.9747462565247900e+00 6.3216575828096220e+00 3.3774629437423573e+02
-3.0913868618998750e+00 6.5695314866142196e+00 3.3278819411790448e+02
-3.2080274672749600e+00 6.8174053904188163e+00 3.2785189774330257e+02
-3.3246680726500455e+00 7.0652792942234148e+00 3.2287225183761325e+02
-3.4413086780251310e+00 7.3131531980280124e+00 3.1790911295801840e+02
-3.5579492834002160e+00 7.5610271018326101e+00 3.1291921138320691e+02
-3.6745898887753010e+00 7.8089010056372068e+00 3.0794183193539266e+02
-3.7912304941503869e+00 8.0567749094418062e+00 3.0294817746127899e+02
-3.9078710995254711e+00 8.3046488132464020e+00 2.9796343234564586e+02
-4.0245117049005570e+00 8.5525227170509996e+00 2.9297076126350453e+02
-4.1411523102756425e+00 8.8003966208555973e+00 2.8798439879097702e+02
-4.2577929156507270e+00 9.0482705246601949e+00 2.8300000000000000e+02
-2.6567289100473106e+00 4.1863348945238936e+00 3.7300000000000000e+02
-2.7989151752969237e+00 4.4103845977079068e+00 3.6836278466627442e+02
-2.9411014405465377e+00 4.6344343008919209e+00 3.6377451110615561e+02
-3.0832877057961512e+00 4.8584840040759341e+00 3.5949316670298134e+02
-3.2254739710457652e+00 5.0825337072599481e+00 3.5484969296108608e+02
-3.3676602362953783e+00 5.3065834104439613e+00 3.5028413904918187e+02
-3.5098465015449918e+00 5.5306331136279745e+00 3.4553595488194020e+02
-3.6520327667946058e+00 5.7546828168119886e+00 3.4083480204019509e+02
-3.7942190320442193e+00 5.9787325199960017e+00 3.3603749873168368e+02
-3.9364052972938328e+00 6.2027822231800149e+00 3.3127158344637189e+02
-4.0785915625434468e+00 6.4268319263640290e+00 3.2645124642891710e+02
-4.2207778277930599e+00 6.6508816295480422e+00 3.2165279654929600e+02
-4.3629640930426730e+00 6.8749313327320554e+00 3.1682135793187314e+02
-4.5051503582922869e+00 7.0989810359160685e+00 3.1200573792331772e+02
-4.6473366235419009e+00 7.3230307391000826e+00 3.0716947387584418e+02
-4.7895228887915140e+00 7.5470804422840958e+00 3.0234432694543989e+02
-4.9317091540411280e+00 7.7711301454681090e+00 2.9750688039994947e+02
-5.0738954192907411e+00 7.9951798486521222e+00 2.9267577134182108e+02
-5.2160816845403550e+00 8.2192295518361362e+00 2.8783804966624768e+02
-5.3582679497899690e+00 8.4432792550201494e+00 2.8300000000000000e+02
-3.2036743933072063e+00 3.8725770998328959e+00 3.7300000000000000e+02
-3.3705462619482423e+00 4.0742905381447381e+00 3.6834930108141054e+02
-3.5374181305892791e+00 4.2760039764565798e+00 3.6404320244642622e+02
-3.7042899992303155e+00 4.4777174147684216e+00 3.5921438916618507e+02
-3.8711618678713515e+00 4.6794308530802633e+00 3.5458643531755752e+02
-4.0380337365123875e+00 4.8811442913921050e+00 3.4977452518879306e+02
-4.2049056051534244e+00 5.0828577297039468e+00 3.4507300441568071e+02
-4.3717774737944612e+00 5.2845711680157894e+00 3.4027384875020573e+02
-4.5386493424354972e+00 5.4862846063276312e+00 3.3553856249469504e+02
-4.7055212110765332e+00 5.6879980446394729e+00 3.3074684815572152e+02
-4.8723930797175701e+00 5.8897114829513155e+00 3.2599377525539285e+02
-5.0392649483586061e+00 6.0914249212631573e+00 3.2120609045959128e+02
-5.2061368169996429e+00 6.2931383595749990e+00 3.1644322989820284e+02
-5.3730086856406789e+00 6.4948517978868407e+00 3.1165805723904043e+02
-5.5398805542817149e+00 6.6965652361986825e+00 3.0688933501755258e+02
-5.7067524229227526e+00 6.8982786745105260e+00 3.0210632344304992e+02
-5.8736242915637886e+00 7.0999921128223678e+00 2.9733364529181802e+02
-6.0404961602048246e+00 7.3017055511342095e+00 2.9255313531746975e+02
-6.2073680288458615e+00 7.5034189894460512e+00 2.8777787827546513e+02
-6.3742398974868975e+00 7.7051324277578921e+00 2.8300000000000000e+02
-3.7368895867501086e+00 3.5091728992968489e+00 3.7300000000000000e+02
-3.9238788860903195e+00 3.6847675392963244e+00 3.6883274484448276e+02
-4.1108681854305305e+00 3.8603621792958003e+00 3.6351933652783214e+02
-4.2978574847707414e+00 4.0359568192952757e+00 3.5869018328881401e+02
-4.4848467841109523e+00 4.2115514592947507e+00 3.5371963369228325e+02
-4.6718360834511632e+00 4.3871460992942266e+00 3.4896967589405017e+02
-4.8588253827913741e+00 4.5627407392937016e+00 3.4414050053694581e+02
-5.0458146821315850e+00 4.7383353792931775e+00 3.3942910792911943e+02
-5.2328039814717959e+00 4.9139300192926534e+00 3.3466644034449797e+02
-5.4197932808120068e+00 5.0895246592921293e+00 3.2997004991537307e+02
-5.6067825801522186e+00 5.2651192992916052e+00 3.2524065336498302e+02
-5.7937718794924287e+00 5.4407139392910802e+00 3.2055073750972986e+02
-5.9807611788326396e+00 5.6163085792905552e+00 3.1583881371337202e+02
-6.1677504781728514e+00 5.7919032192900319e+00 3.1115162029675861e+02
-6.3547397775130614e+00 5.9674978592895069e+00 3.0644938801470136e+02
-6.5417290768532723e+00 6.1430924992889819e+00 3.0176257973616293e+02
-6.7287183761934841e+00 6.3186871392884587e+00 2.9706609557487536e+02
-6.9157076755336959e+00 6.4942817792879346e+00 2.9237815097204316e+02
-7.1026969748739059e+00 6.6698764192874096e+00 2.8768613465270460e+02
-7.2896862742141169e+00 6.8454710592868846e+00 2.8300000000000000e+02
-4.2774698701043299e+00 3.1077637728923633e+00 3.7300000000000000e+02
-4.4781382950330215e+00 3.2535579176309088e+00 3.6621870842032371e+02
-4.6788067199617132e+00 3.3993520623694549e+00 3.6129731959831793e+02
-4.8794751448904048e+00 3.5451462071080004e+00 3.5630084636425596e+02
-5.0801435698190973e+00 3.6909403518465465e+00 3.5163313971868746e+02
-5.2808119947477881e+00 3.8367344965850920e+00 3.4688074836327485e+02
-5.4814804196764806e+00 3.9825286413236380e+00 3.4228789942749063e+02
-5.6821488446051722e+00 4.1283227860621832e+00 3.3763431035813898e+02
-5.8828172695338639e+00 4.2741169308007292e+00 3.3307099937113190e+02
-6.0834856944625555e+00 4.4199110755392752e+00 3.2846902727833475e+02
-6.2841541193912480e+00 4.5657052202778212e+00 3.2392049367530217e+02
-6.4848225443199388e+00 4.7114993650163663e+00 3.1934711916851984e+02
-6.6854909692486304e+00 4.8572935097549124e+00 3.1480685065899877e+02
-6.8861593941773220e+00 5.0030876544934575e+00 3.1024981016578158e+02
-7.0868278191060146e+00 5.1488817992320044e+00 3.0571367299958365e+02
-7.2874962440347062e+00 5.2946759439705495e+00 3.0116605626015706e+02
-7.4881646689633978e+00 5.4404700887090947e+00 2.9663059231475341e+02
-7.6888330938920904e+00 5.5862642334476416e+00 2.9208756355467148e+02
-7.8895015188207802e+00 5.7320583781861858e+00 2.8754802589719480e+02
-8.0901699437494727e+00 5.8778525229247327e+00 2.8300000000000000e+02
-4.4145223001796641e+00 2.4269041717324984e+00 3.7300000000000000e+02
-4.6433930633511888e+00 2.5527269385369538e+00 3.6957227578065726e+02
-4.8722638265227145e+00 2.6785497053414096e+00 3.6462360459785407e+02
-5.1011345896942393e+00 2.8043724721458649e+00 3.5987737079808664e+02
-5.3300053528657640e+00 2.9301952389503203e+00 3.5492232330787010e+02
-5.5588761160372879e+00 3.0560180057547757e+00 3.5012341869611248e+02
-5.7877468792088127e+00 3.1818407725592310e+00 3.4522266677091744e+02
-6.0166176423803384e+00 3.3076635393636868e+00 3.4042755003219253e+02
-6.2454884055518631e+00 3.4334863061681422e+00 3.3557556862093799e+02
-6.4743591687233870e+00 3.5593090729725976e+00 3.3078990203193132e+02
-6.7032299318949127e+00 3.6851318397770534e+00 3.2597115819300018e+02