variables="x","y","T"
zone t="Temperature" n=1000 e=950 et=quadrilateral f=fepoint
4.7964503199349968e+00 0.0000000000000000e+00 3.7300000000000000e+02
5.0703213557278914e+00 0.0000000000000000e+00 3.7046376204097919e+02
5.3441923915207870e+00 0.0000000000000000e+00 3.6605352995134211e+02
5.6180634273136816e+00 0.0000000000000000e+00 3.6182489920462621e+02
5.8919344631065762e+00 0.0000000000000000e+00 3.5711519164800433e+02
6.1658054988994717e+00 0.0000000000000000e+00 3.5243401752218932e+02
6.4396765346923663e+00 0.0000000000000000e+00 3.4757188371361718e+02
6.7135475704852610e+00 0.0000000000000000e+00 3.4270602337229917e+02
6.9874186062781565e+00 0.0000000000000000e+00 3.3777800684365451e+02
7.2612896420710511e+00 0.0000000000000000e+00 3.3283469434544526e+02
7.5351606778639457e+00 0.0000000000000000e+00 3.2787604372069796e+02
7.8090317136568412e+00 0.0000000000000000e+00 3.2289944113653473e+02
8.0829027494497367e+00 0.0000000000000000e+00 3.1792509157053831e+02
8.3567737852426305e+00 0.0000000000000000e+00 3.1293466738032600e+02
8.6306448210355260e+00 0.0000000000000000e+00 3.0795156211409693e+02
8.9045158568284215e+00 0.0000000000000000e+00 3.0295670252716303e+02
9.1783868926213152e+00 0.0000000000000000e+00 2.9796847496777445e+02
9.4522579284142090e+00 0.0000000000000000e+00 2.9297466773512764e+02
9.7261289642071063e+00 0.0000000000000000e+00 2.8798384518364844e+02
1.0000000000000000e+01 0.0000000000000000e+00 2.8300000000000000e+02
4.7866583651568613e+00 6.0469557610413061e-01 3.7300000000000000e+02
5.0568946097878040e+00 6.3883435292196811e-01 3.6870667162642815e+02
5.3271308544187477e+00 6.7297312973980550e-01 3.6514448362939260e+02
5.5973670990496904e+00 7.0711190655764300e-01 3.6076712716355399e+02
5.8676033436806332e+00 7.4125068337548050e-01 3.5636287964385161e+02
6.1378395883115759e+00 7.7538946019331789e-01 3.5165731492783630e+02
6.4080758329425196e+00 8.0952823701115550e-01 3.4693287682759626e+02
6.6783120775734623e+00 8.4366701382899301e-01 3.4209861833389192e+02
6.9485483222044060e+00 8.7780579064683040e-01 3.3724349854981602e+02
7.2187845668353487e+00 9.1194456746466790e-01 3.3235393853054796e+02
7.4890208114662915e+00 9.4608334428250529e-01 3.2744291649256519e+02
7.7592570560972352e+00 9.8022212110034290e-01 3.2252691806986780e+02
8.0294933007281788e+00 1.0143608979181804e+00 3.1759173198159419e+02
8.2997295453591207e+00 1.0484996747360178e+00 3.1266193473735279e+02
8.5699657899900643e+00 1.0826384515538552e+00 3.0771726305432719e+02
8.8402020346210062e+00 1.1167772283716928e+00 3.0277991491020060e+02
9.1104382792519498e+00 1.1509160051895302e+00 2.9783340405977452e+02
9.3806745238828935e+00 1.1850547820073676e+00 2.9289182449314296e+02
9.6509107685138353e+00 1.2191935588252052e+00 2.8794798978997528e+02
9.9211470131447790e+00 1.2533323356430426e+00 2.8300000000000000e+02
4.7529222272911662e+00 1.2203430121901493e+00 3.7300000000000000e+02
5.0125490369751216e+00 1.2870038468984861e+00 3.6961676605875294e+02
5.2721758466590760e+00 1.3536646816068230e+00 3.6496398573851195e+02
5.5318026563430305e+00 1.4203255163151596e+00 3.6041109240140156e+02
5.7914294660269858e+00 1.4869863510234964e+00 3.5559506589161094e+02
6.0510562757109412e+00 1.5536471857318332e+00 3.5085095756265298e+02
6.3106830853948956e+00 1.6203080204401699e+00 3.4601638080061076e+02
6.5703098950788510e+00 1.6869688551485067e+00 3.4120339171926577e+02
6.8299367047628063e+00 1.7536296898568435e+00 3.3636464395682253e+02
7.0895635144467617e+00 1.8202905245651804e+00 3.3152253609191149e+02
7.3491903241307153e+00 1.8869513592735170e+00 3.2668042726695802e+02
7.6088171338146706e+00 1.9536121939818538e+00 3.2182604774606131e+02
7.8684439434986251e+00 2.0202730286901902e+00 3.1698057477467233e+02
8.1280707531825804e+00 2.0869338633985270e+00 3.1212173296321589e+02
8.3876975628665349e+00 2.1535946981068639e+00 3.0727302240343425e+02
8.6473243725504911e+00 2.2202555328152007e+00 3.0241369717886573e+02
8.9069511822344456e+00 2.2869163675235376e+00 2.9756199027272362e+02
9.1665779919184001e+00 2.3535772022318744e+00 2.9270481364724611e+02
9.4262048016023563e+00 2.4202380369402112e+00 2.8785043118346812e+02
9.6858316112863108e+00 2.4868988716485481e+00 2.8300000000000000e+02
4.8094742809268363e+00 1.9042055754112148e+00 3.7300000000000000e+02
5.0457001008192401e+00 1.9977339939078234e+00 3.6730239059374082e+02
5.2819259207116440e+00 2.0912624124044319e+00 3.6220029817810342e+02
5.5181517406040479e+00 2.1847908309010409e+00 3.5715387141755917e+02
5.7543775604964527e+00 2.2783192493976494e+00 3.5237946648302773e+02
5.9906033803888565e+00 2.3718476678942584e+00 3.4760406630179517e+02
6.2268292002812604e+00 2.4653760863908669e+00 3.4293094385462513e+02
6.4630550201736643e+00 2.5589045048874755e+00 3.3826408761024527e+02
6.6992808400660682e+00 2.6524329233840840e+00 3.3362880489555067e+02
6.9355066599584729e+00 2.7459613418806930e+00 3.2900807353075265e+02
7.1717324798508768e+00 2.8394897603773015e+00 3.2439013504582601e+02
7.4079582997432807e+00 2.9330181788739100e+00 3.1978905154421454e+02
7.6441841196356837e+00 3.0265465973705186e+00 3.1518035365672620e+02
7.8804099395280884e+00 3.1200750158671275e+00 3.1058679322349161e+02
8.1166357594204932e+00 3.2136034343637365e+00 3.0598354479881743e+02
8.3528615793128971e+00 3.3071318528603455e+00 3.0139136809234145e+02
8.5890873992053010e+00 3.4006602713569536e+00 2.9679146196500017e+02
8.8253132190977048e+00 3.4941886898535617e+00 2.9219693699514096e+02
9.0615390389901087e+00 3.5877171083501707e+00 2.8759946562607166e+02
9.2977648588825126e+00 3.6812455268467796e+00 2.8300000000000000e+02
4.5647809174721070e+00 2.5095095456210723e+00 3.7300000000000000e+02
4.7857433323650822e+00 2.6309846611682346e+00 3.6680177257299368e+02
5.0067057472580574e+00 2.7524597767153969e+00 3.6151084022292542e+02
5.2276681621510326e+00 2.8739348922625592e+00 3.5659612770256172e+02
5.4486305770440078e+00 2.9954100078097210e+00 3.5174571802362846e+02
5.6695929919369830e+00 3.1168851233568828e+00 3.4704477753783442e+02
5.8905554068299582e+00 3.2383602389040451e+00 3.4236570493463080e+02
6.1115178217229333e+00 3.3598353544512074e+00 3.3774255285220340e+02
6.3324802366159094e+00 3.4813104699983697e+00 3.3314061984680433e+02
6.5534426515088837e+00 3.6027855855455315e+00 3.2855269975304145e+02
6.7744050664018589e+00 3.7242607010926938e+00 3.2398586794190032e+02
6.9953674812948341e+00 3.8457358166398561e+00 3.1941575271720620e+02
7.2163298961878102e+00 3.9672109321870188e+00 3.1486420130187389e+02
7.4372923110807854e+00 4.0886860477341802e+00 3.1030378629363759e+02
7.6582547259737597e+00 4.2101611632813425e+00 3.0575770745056133e+02
7.8792171408667340e+00 4.3316362788285039e+00 3.0120284437087105e+02
8.1001795557597109e+00 4.4531113943756671e+00 2.9665680025229943e+02
8.3211419706526861e+00 4.5745865099228293e+00 2.9210481383710578e+02
8.5421043855456613e+00 4.6960616254699916e+00 2.8755395541786118e+02
8.7630668004386365e+00 4.8175367410171530e+00 2.8300000000000000e+02
3.9830722601462880e+00 2.8938713891147105e+00 3.7300000000000000e+02
4.1992352961254031e+00 3.0509230277362906e+00 3.6951197315732435e+02
4.4153983321045178e+00 3.2079746663578703e+00 3.6480425850384438e+02
4.6315613680836334e+00 3.3650263049794504e+00 3.5995064072669129e+02
4.8477244040627481e+00 3.5220779436010310e+00 3.5511763764504929e+02
5.0638874400418628e+00 3.6791295822226107e+00 3.5025715819104641e+02
5.2800504760209783e+00 3.8361812208441908e+00 3.4543195881698284e+02
5.4962135120000939e+00 3.9932328594657709e+00 3.4060927310210371e+02
5.7123765479792086e+00 4.1502844980873510e+00 3.3579430437789728e+02
5.9285395839583233e+00 4.3073361367089307e+00 3.3099219517164153e+02
6.1447026199374388e+00 4.4643877753305112e+00 3.2618263291396772e+02
6.3608656559165535e+00 4.6214394139520909e+00 3.2138837925898218e+02
6.5770286918956691e+00 4.7784910525736715e+00 3.1658162174104717e+02
6.7931917278747838e+00 4.9355426911952511e+00 3.1178881441259500e+02
7.0093547638538984e+00 5.0925943298168308e+00 3.0698405777843482e+02
7.2255177998330131e+00 5.2496459684384105e+00 3.0218993901896397e+02
7.4416808358121296e+00 5.4066976070599910e+00 2.9738760448649577e+02
7.6578438717912451e+00 5.5637492456815716e+00 2.9259160441479577e+02
7.8740069077703598e+00 5.7208008843031513e+00 2.8779406043319688e+02
8.0901699437494745e+00 5.8778525229247318e+00 2.8300000000000000e+02
3.5206920289495121e+00 3.3061498789170001e+00 3.7300000000000000e+02
3.7190601471213331e+00 3.4924299410417308e+00 3.6862898746851084e+02
3.9174282652931542e+00 3.6787100031664619e+00 3.6445359411035480e+02
4.1157963834649758e+00 3.8649900652911930e+00 3.5995951846188945e+02
4.3141645016367969e+00 4.0512701274159237e+00 3.5535234888584415e+02
4.5125326198086180e+00 4.2375501895406549e+00 3.5067433426728354e+02
4.7109007379804400e+00 4.4238302516653860e+00 3.4594098731525611e+02
4.9092688561522602e+00 4.6101103137901163e+00 3.4116901237017595e+02
5.1076369743240821e+00 4.7963903759148474e+00 3.3637866586018544e+02
5.3060050924959024e+00 4.9826704380395777e+00 3.3155749547618649e+02
5.5043732106677243e+00 5.1689505001643097e+00 3.2673580530795789e+02
5.7027413288395454e+00 5.3552305622890399e+00 3.2188835108994061e+02
5.9011094470113656e+00 5.5415106244137702e+00 3.1704743909740120e+02
6.0994775651831876e+00 5.7277906865385013e+00 3.1218619545282348e+02
6.2978456833550096e+00 5.9140707486632333e+00 3.0733285600149020e+02
6.4962138015268307e+00 6.1003508107879636e+00 3.0246523364188079e+02
6.6945819196986509e+00 6.2866308729126938e+00 2.9760375421513749e+02
6.8929500378704729e+00 6.4729109350374250e+00 2.9273470966741570e+02
7.0913181560422949e+00 6.6591909971621570e+00 2.8786799575265758e+02
7.2896862742141160e+00 6.8454710592868873e+00 2.8300000000000000e+02
3.0518074710991661e+00 3.6890015259875666e+00 3.7300000000000000e+02
3.2266723356458886e+00 3.9003768366070575e+00 3.6844517713867515e+02
3.4015372001926112e+00 4.1117521472265484e+00 3.6400509974698031e+02
3.5764020647393338e+00 4.3231274578460388e+00 3.5972076196483317e+02
3.7512669292860563e+00 4.5345027684655301e+00 3.5526094053317502e+02
3.9261317938327789e+00 4.7458780790850206e+00 3.5071195201860087e+02
4.1009966583795014e+00 4.9572533897045119e+00 3.4605763348203533e+02
4.2758615229262249e+00 5.1686287003240023e+00 3.4135080225285867e+02
4.4507263874729475e+00 5.3800040109434937e+00 3.3657890098435195e+02
4.6255912520196700e+00 5.5913793215629841e+00 3.3178668553770137e+02
4.8004561165663926e+00 5.8027546321824746e+00 3.2695025761747542e+02
4.9753209811131152e+00 6.0141299428019659e+00 3.2211023725304005e+02
5.1501858456598368e+00 6.2255052534214563e+00 3.1723895124512336e+02
5.3250507102065603e+00 6.4368805640409468e+00 3.1237107087220835e+02
5.4999155747532829e+00 6.6482558746604381e+00 3.0748165166765102e+02
5.6747804393000054e+00 6.8596311852799285e+00 3.0259714756054609e+02
5.8496453038467280e+00 7.0710064958994199e+00 2.9769935257641754e+02
6.0245101683934505e+00 7.2823818065189103e+00 2.9280438890778930e+02
6.1993750329401740e+00 7.4937571171384016e+00 2.8790311972911047e+02
6.3742398974868966e+00 7.7051324277578921e+00 2.8300000000000000e+02
2.4751058478011370e+00 3.9001427428685358e+00 3.7300000000000000e+02
2.6268512215900226e+00 4.1392551908765158e+00 3.7004550527176093e+02
2.7785965953789082e+00 4.3783676388844954e+00 3.6640174240336023e+02
2.9303419691677943e+00 4.6174800868924750e+00 3.6209781833363826e+02
3.0820873429566800e+00 4.8565925349004555e+00 3.5763244917408809e+02
3.2338327167455656e+00 5.0957049829084351e+00 3.5294340958774734e+02
3.3855780905344512e+00 5.3348174309164147e+00 3.4817566605903602e+02
3.5373234643233369e+00 5.5739298789243943e+00 3.4330097832531573e+02
3.6890688381122225e+00 5.8130423269323739e+00 3.3839303641925517e+02
3.8408142119011082e+00 6.0521547749403535e+00 3.3342241476724837e+02
3.9925595856899943e+00 6.2912672229483331e+00 3.2844178195112693e+02
4.1443049594788794e+00 6.5303796709563127e+00 3.2341997215235710e+02
4.2960503332677664e+00 6.7694921189642931e+00 3.1839893991801296e+02
4.4477957070566516e+00 7.0086045669722727e+00 3.1335007632434929e+02
4.5995410808455377e+00 7.2477170149802523e+00 3.0830594705459225e+02
4.7512864546344229e+00 7.4868294629882319e+00 3.0324413851617629e+02
4.9030318284233090e+00 7.7259419109962115e+00 2.9818732060244304e+02
5.0547772022121942e+00 7.9650543590041911e+00 2.9312206046716096e+02
5.2065225760010803e+00 8.2041668070121716e+00 2.8806057530152208e+02
5.3582679497899655e+00 8.4432792550201512e+00 2.8300000000000000e+02
2.0394722272291896e+00 4.3340990990118753e+00 3.7300000000000000e+02
2.1562259476724286e+00 4.5822133845723130e+00 3.6982772116858303e+02
2.2729796681156675e+00 4.8303276701327515e+00 3.6553237053307214e+02
2.3897333885589065e+00 5.0784419556931892e+00 3.6108130978818940e+02
2.5064871090021446e+00 5.3265562412536269e+00 3.5634971559783713e+02
2.6232408294453835e+00 5.5746705268140646e+00 3.5161766108265306e+02
2.7399945498886225e+00 5.8227848123745032e+00 3.4678505557975581e+02
2.8567482703318614e+00 6.0708990979349409e+00 3.4195934216872848e+02
2.9735019907750999e+00 6.3190133834953786e+00 3.3707927866107036e+02
3.0902557112183389e+00 6.5671276690558162e+00 3.3220845831603896e+02
3.2070094316615774e+00 6.8152419546162548e+00 3.2730118829694226e+02
3.3237631521048163e+00 7.0633562401766925e+00 3.2240478273972923e+02
3.4405168725480553e+00 7.3114705257371302e+00 3.1748217326388078e+02
3.5572705929912942e+00 7.5595848112975688e+00 3.1257018713191417e+02
3.6740243134345332e+00 7.8076990968580064e+00 3.0763985678118291e+02
3.7907780338777712e+00 8.0558133824184441e+00 3.0271826992854056e+02
3.9075317543210106e+00 8.3039276679788827e+00 2.9778557563267759e+02
4.0242854747642491e+00 8.5520419535393195e+00 2.9285861450281033e+02
4.1410391952074885e+00 8.8001562390997599e+00 2.8792780219914835e+02
4.2577929156507270e+00 9.0482705246601967e+00 2.8300000000000000e+02
1.5870812653566526e+00 4.8845338825474389e+00 3.7300000000000000e+02
1.6661911957983804e+00 5.1280092130950239e+00 3.6733184695141290e+02
1.7453011262401077e+00 5.3714845436426071e+00 3.6238623619830054e+02
1.8244110566818350e+00 5.6149598741901912e+00 3.5745923410603416e+02
1.9035209871235625e+00 5.8584352047377752e+00 3.5276511183026986e+02
1.9826309175652901e+00 6.1019105352853602e+00 3.4802474119154255e+02
2.0617408480070174e+00 6.3453858658329434e+00 3.4337442041678401e+02
2.1408507784487449e+00 6.5888611963805266e+00 3.3869142894097712e+02
2.2199607088904725e+00 6.8323365269281116e+00 3.3405448018687031e+02
2.2990706393322000e+00 7.0758118574756956e+00 3.2939291499076779e+02
2.3781805697739276e+00 7.3192871880232797e+00 3.2476104489030735e+02
2.4572905002156546e+00 7.5627625185708629e+00 3.2010920512251005e+02
2.5364004306573826e+00 7.8062378491184488e+00 3.1547864428726979e+02
2.6155103610991102e+00 8.0497131796660319e+00 3.1083214354177875e+02
2.6946202915408373e+00 8.2931885102136160e+00 3.0620072267488155e+02
2.7737302219825648e+00 8.5366638407611983e+00 3.0155753684815534e+02
2.8528401524242919e+00 8.7801391713087824e+00 2.9692352538649209e+02
2.9319500828660199e+00 9.0236145018563683e+00 2.9228205974430654e+02
3.0110600133077470e+00 9.2670898324039523e+00 2.8764333080892203e+02
3.0901699437494745e+00 9.5105651629515346e+00 2.8300000000000000e+02
9.7409628093470335e-01 5.1063915303393133e+00 3.7300000000000000e+02
1.0214498001411529e+00 5.3546273712312917e+00 3.6757657790156276e+02
1.0688033193476025e+00 5.6028632121232684e+00 3.6234609542527431e+02
1.1161568385540521e+00 5.8510990530152469e+00 3.5750989939938563e+02
1.1635103577605015e+00 6.0993348939072236e+00 3.5262359228814495e+02
1.2108638769669513e+00 6.3475707347992012e+00 3.4790904976000655e+02
1.2582173961734007e+00 6.5958065756911788e+00 3.4315963970078064e+02
1.3055709153798503e+00 6.8440424165831564e+00 3.3849522543120503e+02
1.3529244345863001e+00 7.0922782574751340e+00 3.3380972501571080e+02
1.4002779537927494e+00 7.3405140983671116e+00 3.2917432065530846e+02
1.4476314729991988e+00 7.5887499392590883e+00 3.2452264840480501e+02
1.4949849922056486e+00 7.8369857801510667e+00 3.1990416291726314e+02
1.5423385114120982e+00 8.0852216210430452e+00 3.1527198907041549e+02
1.5896920306185476e+00 8.3334574619350210e+00 3.1066262324715154e+02
1.6370455498249972e+00 8.5816933028269986e+00 3.0604218997662912e+02
1.6843990690314470e+00 8.8299291437189780e+00 3.0143662579789128e+02
1.7317525882378964e+00 9.0781649846109538e+00 2.9682319414358949e+02
1.7791061074443462e+00 9.3264008255029331e+00 2.9221752286656181e+02
1.8264596266507958e+00 9.5746366663949107e+00 2.8760775233754634e+02
1.8738131458572451e+00 9.8228725072868865e+00 2.8300000000000000e+02
3.2192291570497444e-01 5.1168182199405923e+00 3.7300000000000000e+02
3.3802724620961433e-01 5.3727892233270191e+00 3.6853859029950218e+02
3.5413157671425433e-01 5.6287602267134469e+00 3.6388678420903608e+02
3.7023590721889421e-01 5.8847312300998746e+00 3.5891098246517328e+02
3.8634023772353410e-01 6.1407022334863015e+00 3.5410169801707895e+02
4.0244456822817409e-01 6.3966732368727302e+00 3.4919413032879748e+02
4.1854889873281398e-01 6.6526442402591570e+00 3.4440598909334091e+02
4.3465322923745392e-01 6.9086152436455848e+00 3.3958274135299803e+02
4.5075755974209381e-01 7.1645862470320116e+00 3.3483118407026546e+02
4.6686189024673380e-01 7.4205572504184403e+00 3.3006099972275831e+02
4.8296622075137369e-01 7.6765282538048671e+00 3.2533671118013785e+02
4.9907055125601368e-01 7.9324992571912958e+00 3.2059874226120968e+02
5.1517488176065351e-01 8.1884702605777235e+00 3.1589168875493533e+02
5.3127921226529351e-01 8.4444412639641495e+00 3.1117360579110738e+02
5.4738354276993340e-01 8.7004122673505773e+00 3.0647636128563676e+02
5.6348787327457328e-01 8.9563832707370050e+00 3.0177092734722976e+02
5.7959220377921328e-01 9.2123542741234345e+00 2.9707852438668050e+02
5.9569653428385327e-01 9.4683252775098605e+00 2.9238162167013985e+02
6.1180086478849316e-01 9.7242962808962883e+00 2.8769115691617691e+02
6.2790519529313304e-01 9.9802672842827160e+00 2.8300000000000000e+02
-3.2402626104044957e-01 5.1502499366974286e+00 3.7300000000000000e+02
-3.4001988915901193e-01 5.4044613760440230e+00 3.6828403482519076e+02
-3.5601351727757424e-01 5.6586728153906165e+00 3.6324299248146093e+02
-3.7200714539613661e-01 5.9128842547372109e+00 3.5845886047619314e+02
-3.8800077351469892e-01 6.1670956940838044e+00 3.5353209976529661e+02
-4.0399440163326128e-01 6.4213071334303988e+00 3.4878101346245904e+02
-4.1998802975182364e-01 6.6755185727769932e+00 3.4396413550155836e+02
-4.3598165787038595e-01 6.9297300121235876e+00 3.3924264417000546e+02
-4.5197528598894826e-01 7.1839414514701803e+00 3.3448840059743947e+02
-4.6796891410751063e-01 7.4381528908167747e+00 3.2979089013079687e+02
-4.8396254222607299e-01 7.6923643301633691e+00 3.2507284485070824e+02
-4.9995617034463530e-01 7.9465757695099635e+00 3.2039151415038378e+02
-5.1594979846319766e-01 8.2007872088565570e+00 3.1569520917541968e+02
-5.3194342658175997e-01 8.4549986482031514e+00 3.1102356106314812e+02
-5.4793705470032239e-01 8.7092100875497458e+00 3.0634072151962584e+02
-5.6393068281888459e-01 8.9634215268963384e+00 3.0167389859551275e+02
-5.7992431093744701e-01 9.2176329662429328e+00 2.9699958891343999e+02
-5.9591793905600932e-01 9.4718444055895272e+00 2.9233420243553661e+02
-6.1191156717457162e-01 9.7260558449361216e+00 2.8766551595679545e+02
-6.2790519529313404e-01 9.9802672842827160e+00 2.8300000000000000e+02
-9.7579724182738170e-01 5.1153082796030187e+00 3.7300000000000000e+02
-1.0230612367763221e+00 5.3630748179021692e+00 3.6712542146263422e+02
-1.0703252317252623e+00 5.6108413562013206e+00 3.6216893648452464e+02
-1.1175892266742027e+00 5.8586078945004711e+00 3.5721129367264825e+02
-1.1648532216231431e+00 6.1063744327996217e+00 3.5255382547335802e+02
-1.2121172165720833e+00 6.3541409710987731e+00 3.4779654335386516e+02
-1.2593812115210239e+00 6.6019075093979245e+00 3.4316975831983626e+02
-1.3066452064699641e+00 6.8496740476970750e+00 3.3848330644189531e+02
-1.3539092014189045e+00 7.0974405859962264e+00 3.3386428346221959e+02
-1.4011731963678449e+00 7.3452071242953769e+00 3.2920894421856980e+02
-1.4484371913167851e+00 7.5929736625945274e+00 3.2459391054009905e+02
-1.4957011862657257e+00 7.8407402008936797e+00 3.1995464662095856e+02
-1.5429651812146659e+00 8.0885067391928303e+00 3.1534177822063378e+02
-1.5902291761636063e+00 8.3362732774919817e+00 3.1071182228721341e+02
-1.6374931711125467e+00 8.5840398157911313e+00 3.0609943210177573e+02
-1.6847571660614868e+00 8.8318063540902827e+00 3.0147513258557592e+02
-1.7320211610104272e+00 9.0795728923894341e+00 2.9686126711120664e+02
-1.7792851559593676e+00 9.3273394306885837e+00 2.9223977068737298e+02
-1.8265491509083078e+00 9.5751059689877351e+00 2.8762185150296256e+02
-1.8738131458572482e+00 9.8228725072868865e+00 2.8300000000000000e+02
-1.5469665042078871e+00 4.7610733425621641e+00 3.7300000000000000e+02
-1.6281877378679706e+00 5.0110465962668673e+00 3.6878428917648819e+02
-1.7094089715280545e+00 5.2610198499715723e+00 3.6407044394216825e+02
-1.7906302051881380e+00 5.5109931036762756e+00 3.5952561538078027e+02
-1.8718514388482215e+00 5.7609663573809788e+00 3.5471707340480390e+02
-1.9530726725083052e+00 6.0109396110856830e+00 3.5004533154387326e+02
-2.0342939061683887e+00 6.2609128647903871e+00 3.4524585379255279e+02
-2.1155151398284722e+00 6.5108861184950904e+00 3.4051645754425590e+02
-2.1967363734885557e+00 6.7608593721997936e+00 3.3571688317749545e+02
-2.2779576071486396e+00 7.0108326259044977e+00 3.3095718251935045e+02
-2.3591788408087231e+00 7.2608058796092019e+00 3.2615529172937215e+02
-2.4404000744688070e+00 7.5107791333139060e+00 3.2137911973030054e+02
-2.5216213081288905e+00 7.7607523870186093e+00 3.1657580412274785e+02
-2.6028425417889740e+00 8.0107256407233134e+00 3.1179029218153011e+02
-2.6840637754490575e+00 8.2606988944280157e+00 3.0698694837253123e+02
-2.7652850091091410e+00 8.5106721481327199e+00 3.0219573770155080e+02
-2.8465062427692245e+00 8.7606454018374240e+00 2.9739368891109973e+02
-2.9277274764293084e+00 9.0106186555421282e+00 2.9259877237357574e+02
-3.0089487100893919e+00 9.2605919092468323e+00 2.8779879758162355e+02
-3.0901699437494754e+00 9.5105651629515346e+00 2.8300000000000000e+02
-2.0411638519811439e+00 4.3376939845981672e+00 3.7300000000000000e+02
-2.1578285395427010e+00 4.5856190656540630e+00 3.7007863920358506e+02
-2.2744932271042577e+00 4.8335441467099587e+00 3.6624318555659738e+02
-2.3911579146658148e+00 5.0814692277658553e+00 3.6167528824542097e+02
-2.5078226022273720e+00 5.3293943088217519e+00 3.5714867595705016e+02
-2.6244872897889291e+00 5.5773193898776476e+00 3.5233134625246305e+02
-2.7411519773504858e+00 5.8252444709335442e+00 3.4755598109792925e+02
-2.8578166649120429e+00 6.0731695519894400e+00 3.4264140564308724e+02
-2.9744813524736000e+00 6.3210946330453366e+00 3.3775682753564331e+02
-3.0911460400351571e+00 6.5690197141012332e+00 3.3279789049415956e+02
-3.2078107275967138e+00 6.8169447951571289e+00 3.2786064725021174e+02
-3.3244754151582709e+00 7.0648698762130246e+00 3.2288010926845317e+02
-3.4411401027198281e+00 7.3127949572689213e+00 3.1791595628146024e+02
-3.5578047902813847e+00 7.5607200383248170e+00 3.1292512966083524e+02
-3.6744694778429419e+00 7.8086451193807127e+00 3.0794671859931731e+02
-3.7911341654044994e+00 8.0565702004366102e+00 3.0295211550432543e+02
-3.9077988529660566e+00 8.3044952814925068e+00 2.9796634838499148e+02
-4.0244635405276137e+00 8.5524203625484034e+00 2.9297271215429879e+02
-4.1411282280891699e+00 8.8003454436042983e+00 2.8798535923413544e+02
-4.2577929156507270e+00 9.0482705246601949e+00 2.8300000000000000e+02
-2.6567043581174117e+00 4.1862962068728979e+00 3.7300000000000000e+02
-2.7988919155738619e+00 4.4103479462490691e+00 3.6836595066594231e+02
-2.9410794730303125e+00 4.6343996856252403e+00 3.6377571866502808e+02
-3.0832670304867626e+00 4.8584514250014106e+00 3.5949446131498809e+02
-3.2254545879432133e+00 5.0825031643775826e+00 3.5485033272711337e+02
-3.3676421453996634e+00 5.3065549037537529e+00 3.5028479988609979e+02
-3.5098297028561141e+00 5.5306066431299250e+00 3.4553637486939334e+02
-3.6520172603125642e+00 5.7546583825060962e+00 3.4083519451942772e+02
-3.7942048177690149e+00 5.9787101218822674e+00 3.3603782419117948e+02
-3.9363923752254650e+00 6.2027618612584385e+00 3.3127184444171081e+02
-4.0785799326819152e+00 6.4268136006346088e+00 3.2645150997728155e+02
-4.2207674901383658e+00 6.6508653400107809e+00 3.2165298072630878e+02
-4.3629550475948164e+00 6.8749170793869512e+00 3.1682156519533646e+02
-4.5051426050512671e+00 7.0989688187631232e+00 3.1200586720173084e+02
-4.6473301625077177e+00 7.3230205581392953e+00 3.0716962342809353e+02
-4.7895177199641674e+00 7.5470722975154656e+00 3.0234440978818986e+02
-4.9317052774206172e+00 7.7711240368916359e+00 2.9750696856931955e+02
-5.0738928348770678e+00 7.9951757762678071e+00 2.9267581071757729e+02
-5.2160803923335193e+00 8.2192275156439791e+00 2.8783807217606505e+02
-5.3582679497899690e+00 8.4432792550201494e+00 2.8300000000000000e+02
-3.2043119361378345e+00 3.8733477567296180e+00 3.7300000000000000e+02
-3.3711502498930481e+00 4.0750206341521586e+00 3.6833886316704633e+02
-3.5379885636482618e+00 4.2766935115746989e+00 3.6403169859375254e+02
-3.7048268774034754e+00 4.4783663889972400e+00 3.5920139591424930e+02
-3.8716651911586899e+00 4.6800392664197812e+00 3.5457375000961889e+02
-4.0385035049139031e+00 4.8817121438423214e+00 3.4976197340833176e+02
-4.2053418186691172e+00 5.0833850212648626e+00 3.4506116792335195e+02
-4.3721801324243312e+00 5.2850578986874028e+00 3.4026269361428325e+02
-4.5390184461795444e+00 5.4867307761099440e+00 3.3552823826310600e+02
-4.7058567599347594e+00 5.6884036535324851e+00 3.3073742071511822e+02
-4.8726950736899726e+00 5.8900765309550254e+00 3.2598521923124162e+02
-5.0395333874451866e+00 6.0917494083775665e+00 3.2119851481004025e+02
-5.2063717012003998e+00 6.2934222858001059e+00 3.1643654848882915e+02
-5.3732100149556139e+00 6.4950951632226470e+00 3.1165238133671068e+02
-5.5400483287108280e+00 6.6967680406451890e+00 3.0688457170467126e+02
-5.7068866424660429e+00 6.8984409180677302e+00 3.0210256166678778e+02
-5.8737249562212561e+00 7.1001137954902696e+00 2.9733081181728579e+02
-6.0405632699764684e+00 7.3017866729128098e+00 2.9255127956731729e+02
-6.2074015837316834e+00 7.5034595503353509e+00 2.8777695969645515e+02
-6.3742398974868975e+00 7.7051324277578921e+00 2.8300000000000000e+02
-3.7369174179369016e+00 3.5091990345208584e+00 3.7300000000000000e+02
-3.9239052524778075e+00 3.6847922989822286e+00 3.6883531787219232e+02
-4.1108930870187139e+00 3.8603855634435984e+00 3.6351959493783352e+02
-4.2978809215596199e+00 4.0359788279049678e+00 3.5869066839887245e+02
-4.4848687561005258e+00 4.2115720923663380e+00 3.5371942606184706e+02
-4.6718565906414318e+00 4.3871653568277074e+00 3.4896953395961901e+02
-4.8588444251823377e+00 4.5627586212890767e+00 3.4414013471388063e+02
-5.0458322597232437e+00 4.7383518857504470e+00 3.3942874914817475e+02
-5.2328200942641496e+00 4.9139451502118172e+00 3.3466605238650220e+02
-5.4198079288050565e+00 5.0895384146731875e+00 3.2996964298620088e+02
-5.6067957633459624e+00 5.2651316791345568e+00 3.2524030046365999e+02
-5.7937835978868684e+00 5.4407249435959262e+00 3.2055036165873310e+02
-5.9807714324277734e+00 5.6163182080572955e+00 3.1583852144401271e+02
-6.1677592669686803e+00 5.7919114725186667e+00 3.1115131366709448e+02
-6.3547471015095862e+00 5.9675047369800360e+00 3.0644916749244527e+02
-6.5417349360504913e+00 6.1430980014414054e+00 3.0176236008196054e+02
-6.7287227705913990e+00 6.3186912659027756e+00 2.9706594993917105e+02
-6.9157106051323058e+00 6.4942845303641459e+00 2.9237802690763107e+02
-7.1026984396732109e+00 6.6698777948255152e+00 2.8768606556236665e+02
-7.2896862742141169e+00 6.8454710592868846e+00 2.8300000000000000e+02
-4.2772925288496975e+00 3.1076349269289030e+00 3.7300000000000000e+02
-4.4779702875286329e+00 3.2534358530339467e+00 3.6621826028653305e+02
-4.6786480462075684e+00 3.3992367791389904e+00 3.6129943736157247e+02
-4.8793258048865047e+00 3.5450377052440345e+00 3.5630278456966295e+02
-5.0800035635654401e+00 3.6908386313490777e+00 3.5163568244988392e+02
-5.2806813222443756e+00 3.8366395574541214e+00 3.4688307791235155e+02
-5.4813590809233110e+00 3.9824404835591651e+00 3.4229027963231846e+02
-5.6820368396022465e+00 4.1282414096642084e+00 3.3763650861044476e+02
-5.8827145982811819e+00 4.2740423357692521e+00 3.3307304932005184e+02
-6.0833923569601174e+00 4.4198432618742958e+00 3.2847092620926514e+02
-6.2840701156390528e+00 4.5656441879793395e+00 3.2392217143521214e+02
-6.4847478743179883e+00 4.7114451140843832e+00 3.1934865884894089e+02
-6.6854256329969255e+00 4.8572460401894277e+00 3.1480814904874802e+02
-6.8861033916758609e+00 5.0030469662944714e+00 3.1025096914847995e+02
-7.0867811503547964e+00 5.1488478923995142e+00 3.0571459490502320e+02
-7.2874589090337318e+00 5.2946488185045579e+00 3.0116682918634945e+02
-7.4881366677126673e+00 5.4404497446096016e+00 2.9663114594285167e+02
-7.6888144263916027e+00 5.5862506707146453e+00 2.9208795380704566e+02
-7.8894921850705382e+00 5.7320515968196890e+00 2.8754822512769306e+02
-8.0901699437494727e+00 5.8778525229247327e+00 2.8300000000000000e+02
-4.4141408097525918e+00 2.4266944455954480e+00 3.7300000000000000e+02
-4.6430316513676466e+00 2.5525282506176432e+00 3.6957662624584282e+02
-4.8719224929827014e+00 2.6783620556398380e+00 3.6462772407273519e+02
-5.1008133345977562e+00 2.8041958606620332e+00 3.5988268017240085e+02
-5.3297041762128119e+00 2.9300296656842280e+00 3.5492729478322053e+02
-5.5585950178278667e+00 3.0558634707064227e+00 3.5012852031929833e+02
-5.7874858594429206e+00 3.1816972757286175e+00 3.4522741580218485e+02
-6.0163767010579754e+00 3.3075310807508123e+00 3.4043206541594816e+02
-6.2452675426730311e+00 3.4333648857730075e+00 3.3557974876584478e+02
-6.4741583842880859e+00 3.5591986907952022e+00 3.3079370814351910e+02
-6.7030492259031407e+00 3.6850324958173974e+00 3.2597463786580334e+02