variables="x","y","T"
zone t="Temperature" n=1000 e=950 et=quadrilateral f=fepoint
6.0000000000000000e+00 0.0000000000000000e+00 3.7300000000000000e+02
6.2105263157894735e+00 0.0000000000000000e+00 3.6778836223292979e+02
6.4210526315789469e+00 0.0000000000000000e+00 3.6269879864928868e+02
6.6315789473684212e+00 0.0000000000000000e+00 3.5770661972142835e+02
6.8421052631578947e+00 0.0000000000000000e+00 3.5279335075090637e+02
7.0526315789473681e+00 0.0000000000000000e+00 3.4794470201656827e+02
7.2631578947368425e+00 0.0000000000000000e+00 3.4314938284325552e+02
7.4736842105263159e+00 0.0000000000000000e+00 3.3839829605341481e+02
7.6842105263157894e+00 0.0000000000000000e+00 3.3368400284438940e+02
7.8947368421052628e+00 0.0000000000000000e+00 3.2900033272450491e+02
8.1052631578947363e+00 0.0000000000000000e+00 3.2434210791424618e+02
8.3157894736842106e+00 0.0000000000000000e+00 3.1970493374155461e+02
8.5263157894736850e+00 0.0000000000000000e+00 3.1508504374339429e+02
8.7368421052631575e+00 0.0000000000000000e+00 3.1047917851134486e+02
8.9473684210526319e+00 0.0000000000000000e+00 3.0588449286074507e+02
9.1578947368421062e+00 0.0000000000000000e+00 3.0129848171550799e+02
9.3684210526315788e+00 0.0000000000000000e+00 2.9671892160307647e+02
9.5789473684210513e+00 0.0000000000000000e+00 2.9214382313596559e+02
9.7894736842105257e+00 0.0000000000000000e+00 2.8757139255831942e+02
1.0000000000000000e+01 0.0000000000000000e+00 2.8300000000000000e+02
5.9166541040578391e+00 7.4744723544624192e-01 3.7300000000000000e+02
6.1274168887466249e+00 7.7407276703554717e-01 3.6785152050273899e+02
6.3381796734354117e+00 8.0069829862485253e-01 3.6280373797669790e+02
6.5489424581241975e+00 8.2732383021415778e-01 3.5783870233283324e+02
6.7597052428129842e+00 8.5394936180346304e-01 3.5294206492244456e+02
6.9704680275017710e+00 8.8057489339276840e-01 3.4810228754961122e+02
7.1812308121905568e+00 9.0720042498207365e-01 3.4330996733040632e+02
7.3919935968793427e+00 9.3382595657137890e-01 3.3855736371066354e+02
7.6027563815681294e+00 9.6045148816068437e-01 3.3383802892116410e+02
7.8135191662569161e+00 9.8707701974998963e-01 3.2914654212119575e+02
8.0242819509457011e+00 1.0137025513392948e+00 3.2447829964621025e+02
8.2350447356344887e+00 1.0403280829286001e+00 3.1982935906093269e+02
8.4458075203232763e+00 1.0669536145179057e+00 3.1519631446095997e+02
8.6565703050120604e+00 1.0935791461072109e+00 3.1057620079955012e+02
8.8673330897008480e+00 1.1202046776965162e+00 3.0596641648350504e+02
9.0780958743896321e+00 1.1468302092858214e+00 3.0136466231491784e+02
9.2888586590784197e+00 1.1734557408751267e+00 2.9676889155120460e+02
9.4996214437672073e+00 1.2000812724644321e+00 2.9217726957858980e+02
9.7103842284559914e+00 1.2267068040537372e+00 2.8758814056340532e+02
9.9211470131447790e+00 1.2533323356430426e+00 2.8300000000000000e+02
5.6765725352523102e+00 1.4574961035147826e+00 3.7300000000000000e+02
5.8875861708330470e+00 1.5116751965744546e+00 3.6801141261559860e+02
6.0985998064137839e+00 1.5658542896341263e+00 3.6307334058663218e+02
6.3096134419945207e+00 1.6200333826937983e+00 3.5818157031426705e+02
6.5206270775752575e+00 1.6742124757534700e+00 3.5333114979810500e+02
6.7316407131559943e+00 1.7283915688131419e+00 3.4851709019756441e+02
6.9426543487367312e+00 1.7825706618728139e+00 3.4373470472732703e+02
7.1536679843174689e+00 1.8367497549324858e+00 3.3897971323039661e+02
7.3646816198982048e+00 1.8909288479921575e+00 3.3424827404016105e+02
7.5756952554789425e+00 1.9451079410518295e+00 3.2953696010496469e+02
7.7867088910596785e+00 1.9992870341115012e+00 3.2484272681374614e+02
7.9977225266404162e+00 2.0534661271711734e+00 3.2016286846441562e+02
8.2087361622211521e+00 2.1076452202308449e+00 3.1549497916009119e+02
8.4197497978018898e+00 2.1618243132905168e+00 3.1083691407761552e+02
8.6307634333826275e+00 2.2160034063501888e+00 3.0618675635666006e+02
8.8417770689633635e+00 2.2701824994098607e+00 3.0154278702536988e+02
9.0527907045440994e+00 2.3243615924695322e+00 2.9690345949003085e+02
9.2638043401248371e+00 2.3785406855292042e+00 2.9226737714390993e+02
9.4748179757055748e+00 2.4327197785888761e+00 2.8763327435174648e+02
9.6858316112863108e+00 2.4868988716485481e+00 2.8300000000000000e+02
5.3060320010875346e+00 2.1008066848075764e+00 3.7300000000000000e+02
5.5161232041293751e+00 2.1839876764938499e+00 3.6820596909290236e+02
5.7262144071712164e+00 2.2671686681801240e+00 3.6340864427040117e+02
5.9363056102130578e+00 2.3503496598663980e+00 3.5861525483661137e+02
6.1463968132548992e+00 2.4335306515526720e+00 3.5382982830698387e+02
6.3564880162967397e+00 2.5167116432389456e+00 3.4905434676511499e+02
6.5665792193385810e+00 2.5998926349252196e+00 3.4428949903642530e+02
6.7766704223804215e+00 2.6830736266114932e+00 3.3953519448964369e+02
6.9867616254222620e+00 2.7662546182977672e+00 3.3479087553670371e+02
7.1968528284641033e+00 2.8494356099840408e+00 3.3005572628738656e+02
7.4069440315059447e+00 2.9326166016703152e+00 3.2532879730199858e+02
7.6170352345477852e+00 3.0157975933565884e+00 3.2060908839757298e+02
7.8271264375896266e+00 3.0989785850428628e+00 3.1589559685638653e+02
8.0372176406314662e+00 3.1821595767291360e+00 3.1118734855353762e+02
8.2473088436733075e+00 3.2653405684154104e+00 3.0648341484382519e+02
8.4574000467151507e+00 3.3485215601016844e+00 3.0178292245999245e+02
8.6674912497569903e+00 3.4317025517879580e+00 2.9708505767049081e+02
8.8775824527988316e+00 3.5148835434742320e+00 2.9238906767585991e+02
9.0876736558406712e+00 3.5980645351605056e+00 2.8769425984394263e+02
9.2977648588825126e+00 3.6812455268467796e+00 2.8300000000000000e+02
4.8391847856871282e+00 2.6603643487519721e+00 3.7300000000000000e+02
5.0457048917266816e+00 2.7738997378185606e+00 3.6838390253403702e+02
5.2522249977662341e+00 2.8874351268851490e+00 3.6372212678452286e+02
5.4587451038057866e+00 3.0009705159517375e+00 3.5902816945396199e+02
5.6652652098453400e+00 3.1145059050183259e+00 3.5431182429615012e+02
5.8717853158848934e+00 3.2280412940849144e+00 3.4958011225245315e+02
6.0783054219244468e+00 3.3415766831515028e+00 3.4483803019926575e+02
6.2848255279639993e+00 3.4551120722180912e+00 3.4008909634483325e+02
6.4913456340035518e+00 3.5686474612846797e+00 3.3533577046873398e+02
6.6978657400431052e+00 3.6821828503512681e+00 3.3057974934120506e+02
6.9043858460826586e+00 3.7957182394178570e+00 3.2582218753060886e+02
7.1109059521222120e+00 3.9092536284844455e+00 3.2106385171708075e+02
7.3174260581617654e+00 4.0227890175510339e+00 3.1630523511105844e+02
7.5239461642013170e+00 4.1363244066176215e+00 3.1154663799759766e+02
7.7304662702408695e+00 4.2498597956842099e+00 3.0678822738668748e+02
7.9369863762804229e+00 4.3633951847507992e+00 3.0203007949192875e+02
8.1435064823199763e+00 4.4769305738173877e+00 2.9727221121055504e+02
8.3500265883595297e+00 4.5904659628839761e+00 2.9251460280966177e+02
8.5565466943990831e+00 4.7040013519505646e+00 2.8775721476086488e+02
8.7630668004386365e+00 4.8175367410171530e+00 2.8300000000000000e+02
4.3094986869449645e+00 3.1310340704487776e+00 3.7300000000000000e+02
4.5084813846715175e+00 3.2756034626843542e+00 3.6852124424804879e+02
4.7074640823980705e+00 3.4201728549199304e+00 3.6396874380632704e+02
4.9064467801246243e+00 3.5647422471555075e+00 3.5935842230862340e+02
5.1054294778511773e+00 3.7093116393910841e+00 3.5470284647438632e+02
5.3044121755777303e+00 3.8538810316266603e+00 3.5001186821738389e+02
5.5033948733042832e+00 3.9984504238622369e+00 3.4529317273990995e+02
5.7023775710308362e+00 4.1430198160978131e+00 3.4055275573942583e+02
5.9013602687573901e+00 4.2875892083333893e+00 3.3579529366171977e+02
6.1003429664839430e+00 4.4321586005689664e+00 3.3102444781372770e+02
6.2993256642104960e+00 4.5767279928045426e+00 3.2624309457294987e+02
6.4983083619370499e+00 4.7212973850401196e+00 3.2145350833460839e+02
6.6972910596636019e+00 4.8658667772756958e+00 3.1665749922569080e+02
6.8962737573901558e+00 5.0104361695112720e+00 3.1185652101216095e+02
7.0952564551167088e+00 5.1550055617468491e+00 3.0705175274490608e+02
7.2942391528432626e+00 5.2995749539824253e+00 3.0224416246574350e+02
7.4932218505698156e+00 5.4441443462180024e+00 2.9743455587417890e+02
7.6922045482963677e+00 5.5887137384535777e+00 2.9262361433915675e+02
7.8911872460229207e+00 5.7332831306891547e+00 2.8781192424547038e+02
8.0901699437494745e+00 5.8778525229247318e+00 2.8300000000000000e+02
3.7443637871760540e+00 3.5161916406778211e+00 3.7300000000000000e+02
3.9309597075464784e+00 3.6914168732361929e+00 3.6861499805879026e+02
4.1175556279169028e+00 3.8666421057945648e+00 3.6413978839127503e+02
4.3041515482873267e+00 4.0418673383529367e+00 3.5959074699318325e+02
4.4907474686577515e+00 4.2170925709113085e+00 3.5498140144839192e+02
4.6773433890281755e+00 4.3923178034696804e+00 3.5032284778142730e+02
4.8639393093985994e+00 4.5675430360280522e+00 3.4562416171106014e+02
5.0505352297690242e+00 4.7427682685864241e+00 3.4089275084126757e+02
5.2371311501394482e+00 4.9179935011447959e+00 3.3613467197129785e+02
5.4237270705098721e+00 5.0932187337031678e+00 3.3135488630022138e+02
5.6103229908802970e+00 5.2684439662615405e+00 3.2655747612970316e+02
5.7969189112507209e+00 5.4436691988199115e+00 3.2174581613712343e+02
5.9835148316211457e+00 5.6188944313782843e+00 3.1692271432403771e+02
6.1701107519915697e+00 5.7941196639366561e+00 3.1209052297732194e+02
6.3567066723619936e+00 5.9693448964950271e+00 3.0725122859560463e+02
6.5433025927324184e+00 6.1445701290533998e+00 3.0240652289717440e+02
6.7298985131028424e+00 6.3197953616117717e+00 2.9755786002549678e+02
6.9164944334732681e+00 6.4950205941701444e+00 2.9270650199166460e+02
7.1030903538436920e+00 6.6702458267285154e+00 2.8785355525951792e+02
7.2896862742141160e+00 6.8454710592868873e+00 2.8300000000000000e+02
3.1633096560581078e+00 3.8237845142198927e+00 3.7300000000000000e+02
3.3323059845543601e+00 4.0280659833534722e+00 3.6867227964656513e+02
3.5013023130506116e+00 4.2323474524870504e+00 3.6424579879674087e+02
3.6702986415468639e+00 4.4366289216206294e+00 3.5973661186745227e+02
3.8392949700431158e+00 4.6409103907542084e+00 3.5515832371909892e+02
4.0082912985393673e+00 4.8451918598877874e+00 3.5052240347836209e+02
4.1772876270356196e+00 5.0494733290213665e+00 3.4583848349796637e+02
4.3462839555318720e+00 5.2537547981549455e+00 3.4111465013796482e+02
4.5152802840281234e+00 5.4580362672885236e+00 3.3635769029579421e+02
4.6842766125243758e+00 5.6623177364221027e+00 3.3157331421311704e+02
4.8532729410206281e+00 5.8665992055556826e+00 3.2676633812516042e+02
5.0222692695168796e+00 6.0708806746892607e+00 3.2194084146301208e+02
5.1912655980131310e+00 6.2751621438228389e+00 3.1710029442497085e+02
5.3602619265093843e+00 6.4794436129564188e+00 3.1224766494028478e+02
5.5292582550056357e+00 6.6837250820899978e+00 3.0738550533155455e+02
5.6982545835018890e+00 6.8880065512235777e+00 3.0251602403268754e+02
5.8672509119981404e+00 7.0922880203571559e+00 2.9764114383505859e+02
6.0362472404943928e+00 7.2965694894907358e+00 2.9276254983445375e+02
6.2052435689906433e+00 7.5008509586243131e+00 2.8788172853276780e+02
6.3742398974868966e+00 7.7051324277578921e+00 2.8300000000000000e+02
2.5786033580097927e+00 4.0632287230919086e+00 3.7300000000000000e+02
2.7249014944192758e+00 4.2937576984565533e+00 3.6870304279132250e+02
2.8711996308287584e+00 4.5242866738211980e+00 3.6430365112196836e+02
3.0174977672382410e+00 4.7548156491858418e+00 3.5981735842363042e+02
3.1637959036477237e+00 4.9853446245504855e+00 3.5525751343886583e+02
3.3100940400572068e+00 5.2158735999151302e+00 3.5063553744473222e+02
3.4563921764666894e+00 5.4464025752797749e+00 3.4596118518836846e+02
3.6026903128761725e+00 5.6769315506444196e+00 3.4124277700957560e+02
3.7489884492856551e+00 5.9074605260090634e+00 3.3648741748456001e+02
3.8952865856951377e+00 6.1379895013737080e+00 3.3170117913875657e+02
4.0415847221046199e+00 6.3685184767383518e+00 3.2688926646486777e+02
4.1878828585141035e+00 6.5990474521029965e+00 3.2205615180938622e+02
4.3341809949235852e+00 6.8295764274676394e+00 3.1720569256126379e+02
4.4804791313330687e+00 7.0601054028322840e+00 3.1234122789858986e+02
4.6267772677425514e+00 7.2906343781969287e+00 3.0746566067448094e+02
4.7730754041520340e+00 7.5211633535615734e+00 3.0258152507200703e+02
4.9193735405615167e+00 7.7516923289262172e+00 2.9769104335459895e+02
5.0656716769710002e+00 7.9822213042908619e+00 2.9279617288765331e+02
5.2119698133804828e+00 8.2127502796555056e+00 2.8789864546164910e+02
5.3582679497899655e+00 8.4432792550201512e+00 2.8300000000000000e+02
1.9968303170242696e+00 4.2434804271163635e+00 3.7300000000000000e+02
2.1158283485309255e+00 4.4963641164607759e+00 3.6871663426286096e+02
2.2348263800375805e+00 4.7492478058051875e+00 3.6432988554171806e+02
2.3538244115442364e+00 5.0021314951495999e+00 3.5985480479065967e+02
2.4728224430508923e+00 5.2550151844940123e+00 3.5530440440181536e+02
2.5918204745575477e+00 5.5078988738384247e+00 3.5068991032896298e+02
2.7108185060642032e+00 5.7607825631828371e+00 3.4602099320163370e+02
2.8298165375708590e+00 6.0136662525272495e+00 3.4130598709631766e+02
2.9488145690775149e+00 6.2665499418716619e+00 3.3655207665010232e+02
3.0678126005841704e+00 6.5194336312160734e+00 3.3176546725998213e+02
3.1868106320908258e+00 6.7723173205604859e+00 3.2695152762185035e+02
3.3058086635974813e+00 7.0252010099048974e+00 3.2211491496839358e+02
3.4248066951041372e+00 7.2780846992493098e+00 3.1725967964380226e+02
3.5438047266107930e+00 7.5309683885937222e+00 3.1238935505024517e+02
3.6628027581174485e+00 7.7838520779381346e+00 3.0750703283171498e+02
3.7818007896241035e+00 8.0367357672825452e+00 3.0261542683476915e+02
3.9007988211307594e+00 8.2896194566269585e+00 2.9771692672006964e+02
4.0197968526374153e+00 8.5425031459713701e+00 2.9281364337193236e+02
4.1387948841440707e+00 8.7953868353157834e+00 2.8790744710197987e+02
4.2577929156507270e+00 9.0482705246601967e+00 2.8300000000000000e+02
1.4205669389937772e+00 4.3720554815965906e+00 3.7300000000000000e+02
1.5084407813493403e+00 4.6425033595626397e+00 3.6872056923521984e+02
1.5963146237049033e+00 4.9129512375286897e+00 3.6433808882283978e+02
1.6841884660604665e+00 5.1833991154947396e+00 3.5986723842610002e+02
1.7720623084160294e+00 5.4538469934607896e+00 3.5532073544014042e+02
1.8599361507715924e+00 5.7242948714268396e+00 3.5070958697450919e+02
1.9478099931271555e+00 5.9947427493928886e+00 3.4604332250094149e+02
2.0356838354827183e+00 6.2651906273589377e+00 3.4133019515665643e+02
2.1235576778382814e+00 6.5356385053249886e+00 3.3657736370073621e+02
2.2114315201938441e+00 6.8060863832910377e+00 3.3179104581918392e+02
2.2993053625494078e+00 7.0765342612570885e+00 3.2697665355884959e+02
2.3871792049049705e+00 7.3469821392231367e+00 3.2213890701910714e+02
2.4750530472605337e+00 7.6174300171891876e+00 3.1728193289034175e+02
2.5629268896160964e+00 7.8878778951552366e+00 3.1240934735772976e+02
2.6508007319716591e+00 8.1583257731212857e+00 3.0752432720042924e+02
2.7386745743272223e+00 8.4287736510873366e+00 3.0262966981572021e+02
2.8265484166827859e+00 8.6992215290533874e+00 2.9772784447070484e+02
2.9144222590383486e+00 8.9696694070194365e+00 2.9282103574486564e+02
3.0022961013939113e+00 9.2401172849854856e+00 2.8791118060993188e+02
3.0901699437494745e+00 9.5105651629515346e+00 2.8300000000000000e+02
8.4976798554313437e-01 4.4546397815698411e+00 3.7300000000000000e+02
9.0366509924387706e-01 4.7371783460812642e+00 3.6872029820176294e+02
9.5756221294461985e-01 5.0197169105926882e+00 3.6433822816773375e+02
1.0114593266453624e+00 5.3022554751041113e+00 3.5986822683256804e+02
1.0653564403461051e+00 5.5847940396155353e+00 3.5532279960953684e+02
1.1192535540468478e+00 5.8673326041269585e+00 3.5071278456873256e+02
1.1731506677475905e+00 6.1498711686383816e+00 3.4604758174943669e+02
1.2270477814483332e+00 6.4324097331498056e+00 3.4133535594208047e+02
1.2809448951490758e+00 6.7149482976612296e+00 3.3658320870523875e+02
1.3348420088498185e+00 6.9974868621726527e+00 3.3179732902196065e+02
1.3887391225505612e+00 7.2800254266840758e+00 3.2698312026064986e+02
1.4426362362513039e+00 7.5625639911954998e+00 3.2214531006821142e+02
1.4965333499520466e+00 7.8451025557069229e+00 3.1728804317214173e+02
1.5504304636527892e+00 8.1276411202183461e+00 3.1241496108993744e+02
1.6043275773535319e+00 8.4101796847297692e+00 3.0752926968850306e+02
1.6582246910542748e+00 8.6927182492411941e+00 3.0263379703982162e+02
1.7121218047550173e+00 8.9752568137526172e+00 2.9773104266170105e+02
1.7660189184557600e+00 9.2577953782640403e+00 2.9282321969872368e+02
1.8199160321565027e+00 9.5403339427754634e+00 2.8791229098304433e+02
1.8738131458572451e+00 9.8228725072868865e+00 2.8300000000000000e+02
2.8280134645670041e-01 4.4949986831615183e+00 3.7300000000000000e+02
3.0096470692177585e-01 4.7836970305889501e+00 3.6871931421717983e+02
3.1912806738685123e-01 5.0723953780163811e+00 3.6433673195067473e+02
3.3729142785192662e-01 5.3610937254438129e+00 3.5986657066615641e+02
3.5545478831700206e-01 5.6497920728712439e+00 3.5532122770716074e+02
3.7361814878207744e-01 5.9384904202986757e+00 3.5071144904119882e+02
3.9178150924715277e-01 6.2271887677261066e+00 3.4604656251075232e+02
4.0994486971222821e-01 6.5158871151535376e+00 3.4133467747943587e+02
4.2810823017730359e-01 6.8045854625809694e+00 3.3658285704875072e+02
4.4627159064237903e-01 7.0932838100084004e+00 3.3179726436809085e+02
4.6443495110745442e-01 7.3819821574358322e+00 3.2698328819569718e+02
4.8259831157252980e-01 7.6706805048632640e+00 3.2214564946766535e+02
5.0076167203760524e-01 7.9593788522906950e+00 3.1728849244627293e+02
5.1892503250268063e-01 8.2480771997181268e+00 3.1241546222381982e+02
5.3708839296775601e-01 8.5367755471455578e+00 3.0752977097576240e+02
5.5525175343283140e-01 8.8254738945729905e+00 3.0263425446764887e+02
5.7341511389790678e-01 9.1141722420004214e+00 2.9773142043758560e+02
5.9157847436298228e-01 9.4028705894278524e+00 2.9282349001906960e+02
6.0974183482805766e-01 9.6915689368552833e+00 2.8791243331719500e+02
6.2790519529313304e-01 9.9802672842827160e+00 2.8300000000000000e+02
-2.8280134645670085e-01 4.4949986831615183e+00 3.7300000000000000e+02
-3.0096470692177629e-01 4.7836970305889501e+00 3.6871931421717971e+02
-3.1912806738685173e-01 5.0723953780163811e+00 3.6433673195067490e+02
-3.3729142785192717e-01 5.3610937254438129e+00 3.5986657066615601e+02
-3.5545478831700261e-01 5.6497920728712439e+00 3.5532122770716092e+02
-3.7361814878207805e-01 5.9384904202986757e+00 3.5071144904119865e+02
-3.9178150924715338e-01 6.2271887677261066e+00 3.4604656251075227e+02
-4.0994486971222882e-01 6.5158871151535376e+00 3.4133467747943598e+02
-4.2810823017730426e-01 6.8045854625809694e+00 3.3658285704875044e+02
-4.4627159064237970e-01 7.0932838100084004e+00 3.3179726436809096e+02
-4.6443495110745514e-01 7.3819821574358322e+00 3.2698328819569707e+02
-4.8259831157253058e-01 7.6706805048632640e+00 3.2214564946766535e+02
-5.0076167203760602e-01 7.9593788522906950e+00 3.1728849244627287e+02
-5.1892503250268140e-01 8.2480771997181268e+00 3.1241546222381965e+02
-5.3708839296775690e-01 8.5367755471455578e+00 3.0752977097576252e+02
-5.5525175343283228e-01 8.8254738945729905e+00 3.0263425446764882e+02
-5.7341511389790767e-01 9.1141722420004214e+00 2.9773142043758531e+02
-5.9157847436298316e-01 9.4028705894278524e+00 2.9282349001906960e+02
-6.0974183482805855e-01 9.6915689368552833e+00 2.8791243331719465e+02
-6.2790519529313404e-01 9.9802672842827160e+00 2.8300000000000000e+02
-8.4976798554313582e-01 4.4546397815698411e+00 3.7300000000000000e+02
-9.0366509924387850e-01 4.7371783460812642e+00 3.6872029820176306e+02
-9.5756221294462140e-01 5.0197169105926882e+00 3.6433822816773358e+02
-1.0114593266453640e+00 5.3022554751041113e+00 3.5986822683256833e+02
-1.0653564403461069e+00 5.5847940396155353e+00 3.5532279960953656e+02
-1.1192535540468496e+00 5.8673326041269585e+00 3.5071278456873262e+02
-1.1731506677475922e+00 6.1498711686383807e+00 3.4604758174943674e+02
-1.2270477814483352e+00 6.4324097331498047e+00 3.4133535594208024e+02
-1.2809448951490781e+00 6.7149482976612287e+00 3.3658320870523886e+02
-1.3348420088498207e+00 6.9974868621726518e+00 3.3179732902196042e+02
-1.3887391225505634e+00 7.2800254266840749e+00 3.2698312026064986e+02
-1.4426362362513063e+00 7.5625639911954989e+00 3.2214531006821124e+02
-1.4965333499520490e+00 7.8451025557069221e+00 3.1728804317214156e+02
-1.5504304636527917e+00 8.1276411202183461e+00 3.1241496108993732e+02
-1.6043275773535344e+00 8.4101796847297692e+00 3.0752926968850272e+02
-1.6582246910542775e+00 8.6927182492411941e+00 3.0263379703982145e+02
-1.7121218047550202e+00 8.9752568137526172e+00 2.9773104266170100e+02
-1.7660189184557629e+00 9.2577953782640403e+00 2.9282321969872328e+02
-1.8199160321565055e+00 9.5403339427754634e+00 2.8791229098304439e+02
-1.8738131458572482e+00 9.8228725072868865e+00 2.8300000000000000e+02
-1.4205669389937778e+00 4.3720554815965906e+00 3.7300000000000000e+02
-1.5084407813493408e+00 4.6425033595626397e+00 3.6872056923521984e+02
-1.5963146237049040e+00 4.9129512375286897e+00 3.6433808882283995e+02
-1.6841884660604669e+00 5.1833991154947396e+00 3.5986723842609979e+02
-1.7720623084160301e+00 5.4538469934607896e+00 3.5532073544014054e+02
-1.8599361507715930e+00 5.7242948714268396e+00 3.5070958697450897e+02
-1.9478099931271562e+00 5.9947427493928886e+00 3.4604332250094131e+02
-2.0356838354827187e+00 6.2651906273589377e+00 3.4133019515665654e+02
-2.1235576778382823e+00 6.5356385053249886e+00 3.3657736370073610e+02
-2.2114315201938450e+00 6.8060863832910377e+00 3.3179104581918409e+02
-2.2993053625494082e+00 7.0765342612570885e+00 3.2697665355884953e+02
-2.3871792049049709e+00 7.3469821392231367e+00 3.2213890701910725e+02
-2.4750530472605345e+00 7.6174300171891876e+00 3.1728193289034186e+02
-2.5629268896160973e+00 7.8878778951552366e+00 3.1240934735772959e+02
-2.6508007319716600e+00 8.1583257731212857e+00 3.0752432720042913e+02
-2.7386745743272232e+00 8.4287736510873366e+00 3.0262966981571998e+02
-2.8265484166827868e+00 8.6992215290533874e+00 2.9772784447070467e+02
-2.9144222590383495e+00 8.9696694070194365e+00 2.9282103574486587e+02
-3.0022961013939122e+00 9.2401172849854856e+00 2.8791118060993165e+02
-3.0901699437494754e+00 9.5105651629515346e+00 2.8300000000000000e+02
-1.9968303170242703e+00 4.2434804271163635e+00 3.7300000000000000e+02
-2.1158283485309259e+00 4.4963641164607759e+00 3.6871663426286096e+02
-2.2348263800375814e+00 4.7492478058051883e+00 3.6432988554171777e+02
-2.3538244115442373e+00 5.0021314951496008e+00 3.5985480479065967e+02
-2.4728224430508927e+00 5.2550151844940132e+00 3.5530440440181508e+02
-2.5918204745575482e+00 5.5078988738384247e+00 3.5068991032896281e+02
-2.7108185060642040e+00 5.7607825631828371e+00 3.4602099320163353e+02
-2.8298165375708595e+00 6.0136662525272486e+00 3.4130598709631744e+02
-2.9488145690775154e+00 6.2665499418716610e+00 3.3655207665010232e+02
-3.0678126005841708e+00 6.5194336312160734e+00 3.3176546725998185e+02
-3.1868106320908263e+00 6.7723173205604850e+00 3.2695152762185046e+02
-3.3058086635974822e+00 7.0252010099048974e+00 3.2211491496839352e+02
-3.4248066951041376e+00 7.2780846992493089e+00 3.1725967964380214e+02
-3.5438047266107935e+00 7.5309683885937213e+00 3.1238935505024534e+02
-3.6628027581174489e+00 7.7838520779381337e+00 3.0750703283171498e+02
-3.7818007896241039e+00 8.0367357672825452e+00 3.0261542683476921e+02
-3.9007988211307598e+00 8.2896194566269568e+00 2.9771692672006969e+02
-4.0197968526374153e+00 8.5425031459713701e+00 2.9281364337193202e+02
-4.1387948841440716e+00 8.7953868353157816e+00 2.8790744710197993e+02
-4.2577929156507270e+00 9.0482705246601949e+00 2.8300000000000000e+02
-2.5786033580097940e+00 4.0632287230919077e+00 3.7300000000000000e+02
-2.7249014944192771e+00 4.2937576984565524e+00 3.6870304279132233e+02
-2.8711996308287597e+00 4.5242866738211962e+00 3.6430365112196830e+02
-3.0174977672382428e+00 4.7548156491858409e+00 3.5981735842363008e+02
-3.1637959036477259e+00 4.9853446245504855e+00 3.5525751343886560e+02
-3.3100940400572085e+00 5.2158735999151293e+00 3.5063553744473211e+02
-3.4563921764666912e+00 5.4464025752797731e+00 3.4596118518836829e+02
-3.6026903128761743e+00 5.6769315506444178e+00 3.4124277700957543e+02
-3.7489884492856569e+00 5.9074605260090625e+00 3.3648741748455984e+02
-3.8952865856951400e+00 6.1379895013737062e+00 3.3170117913875663e+02
-4.0415847221046226e+00 6.3685184767383509e+00 3.2688926646486760e+02
-4.1878828585141052e+00 6.5990474521029947e+00 3.2205615180938617e+02
-4.3341809949235879e+00 6.8295764274676385e+00 3.1720569256126390e+02
-4.4804791313330714e+00 7.0601054028322832e+00 3.1234122789858964e+02
-4.6267772677425540e+00 7.2906343781969278e+00 3.0746566067448083e+02
-4.7730754041520367e+00 7.5211633535615725e+00 3.0258152507200691e+02
-4.9193735405615202e+00 7.7516923289262163e+00 2.9769104335459889e+02
-5.0656716769710028e+00 7.9822213042908610e+00 2.9279617288765354e+02
-5.2119698133804855e+00 8.2127502796555056e+00 2.8789864546164887e+02
-5.3582679497899690e+00 8.4432792550201494e+00 2.8300000000000000e+02
-3.1633096560581078e+00 3.8237845142198923e+00 3.7300000000000000e+02
-3.3323059845543601e+00 4.0280659833534713e+00 3.6867227964656513e+02
-3.5013023130506120e+00 4.2323474524870504e+00 3.6424579879674070e+02
-3.6702986415468639e+00 4.4366289216206285e+00 3.5973661186745221e+02
-3.8392949700431163e+00 4.6409103907542084e+00 3.5515832371909869e+02
-4.0082912985393682e+00 4.8451918598877874e+00 3.5052240347836170e+02
-4.1772876270356196e+00 5.0494733290213656e+00 3.4583848349796619e+02
-4.3462839555318720e+00 5.2537547981549446e+00 3.4111465013796470e+02
-4.5152802840281243e+00 5.4580362672885236e+00 3.3635769029579404e+02
-4.6842766125243767e+00 5.6623177364221027e+00 3.3157331421311670e+02
-4.8532729410206290e+00 5.8665992055556826e+00 3.2676633812516030e+02
-5.0222692695168805e+00 6.0708806746892607e+00 3.2194084146301191e+02
-5.1912655980131319e+00 6.2751621438228389e+00 3.1710029442497040e+02
-5.3602619265093852e+00 6.4794436129564188e+00 3.1224766494028478e+02
-5.5292582550056366e+00 6.6837250820899978e+00 3.0738550533155438e+02
-5.6982545835018881e+00 6.8880065512235760e+00 3.0251602403268731e+02
-5.8672509119981413e+00 7.0922880203571559e+00 2.9764114383505847e+02
-6.0362472404943945e+00 7.2965694894907358e+00 2.9276254983445352e+02
-6.2052435689906460e+00 7.5008509586243139e+00 2.8788172853276791e+02
-6.3742398974868975e+00 7.7051324277578921e+00 2.8300000000000000e+02
-3.7443637871760544e+00 3.5161916406778198e+00 3.7300000000000000e+02
-3.9309597075464793e+00 3.6914168732361921e+00 3.6861499805879026e+02
-4.1175556279169028e+00 3.8666421057945635e+00 3.6413978839127515e+02
-4.3041515482873276e+00 4.0418673383529358e+00 3.5959074699318319e+02
-4.4907474686577524e+00 4.2170925709113076e+00 3.5498140144839181e+02
-4.6773433890281755e+00 4.3923178034696786e+00 3.5032284778142741e+02
-4.8639393093986003e+00 4.5675430360280513e+00 3.4562416171105980e+02
-5.0505352297690251e+00 4.7427682685864232e+00 3.4089275084126712e+02
-5.2371311501394491e+00 4.9179935011447942e+00 3.3613467197129745e+02
-5.4237270705098730e+00 5.0932187337031660e+00 3.3135488630022110e+02
-5.6103229908802978e+00 5.2684439662615388e+00 3.2655747612970282e+02
-5.7969189112507218e+00 5.4436691988199097e+00 3.2174581613712297e+02
-5.9835148316211466e+00 5.6188944313782825e+00 3.1692271432403754e+02
-6.1701107519915706e+00 5.7941196639366543e+00 3.1209052297732137e+02
-6.3567066723619945e+00 5.9693448964950253e+00 3.0725122859560446e+02
-6.5433025927324202e+00 6.1445701290533981e+00 3.0240652289717434e+02
-6.7298985131028441e+00 6.3197953616117699e+00 2.9755786002549644e+02
-6.9164944334732690e+00 6.4950205941701418e+00 2.9270650199166448e+02
-7.1030903538436929e+00 6.6702458267285136e+00 2.8785355525951758e+02
-7.2896862742141169e+00 6.8454710592868846e+00 2.8300000000000000e+02
-4.3094986869449636e+00 3.1310340704487785e+00 3.7300000000000000e+02
-4.5084813846715175e+00 3.2756034626843551e+00 3.6852124424804873e+02
-4.7074640823980696e+00 3.4201728549199313e+00 3.6396874380632698e+02
-4.9064467801246234e+00 3.5647422471555079e+00 3.5935842230862335e+02
-5.1054294778511764e+00 3.7093116393910845e+00 3.5470284647438638e+02
-5.3044121755777294e+00 3.8538810316266607e+00 3.5001186821738338e+02
-5.5033948733042823e+00 3.9984504238622378e+00 3.4529317273990961e+02
-5.7023775710308353e+00 4.1430198160978140e+00 3.4055275573942555e+02
-5.9013602687573892e+00 4.2875892083333902e+00 3.3579529366171937e+02
-6.1003429664839421e+00 4.4321586005689673e+00 3.3102444781372714e+02
-6.2993256642104951e+00 4.5767279928045435e+00 3.2624309457294930e+02
-6.4983083619370490e+00 4.7212973850401205e+00 3.2145350833460799e+02
-6.6972910596636011e+00 4.8658667772756967e+00 3.1665749922569006e+02
-6.8962737573901540e+00 5.0104361695112729e+00 3.1185652101216078e+02
-7.0952564551167079e+00 5.1550055617468500e+00 3.0705175274490551e+02
-7.2942391528432609e+00 5.2995749539824262e+00 3.0224416246574305e+02
-7.4932218505698147e+00 5.4441443462180032e+00 2.9743455587417878e+02
-7.6922045482963668e+00 5.5887137384535794e+00 2.9262361433915652e+02
-7.8911872460229198e+00 5.7332831306891556e+00 2.8781192424547055e+02
-8.0901699437494727e+00 5.8778525229247327e+00 2.8300000000000000e+02
-4.8391847856871291e+00 2.6603643487519717e+00 3.7300000000000000e+02
-5.0457048917266825e+00 2.7738997378185601e+00 3.6838390253403696e+02
-5.2522249977662341e+00 2.8874351268851486e+00 3.6372212678452263e+02
-5.4587451038057875e+00 3.0009705159517370e+00 3.5902816945396188e+02
-5.6652652098453409e+00 3.1145059050183255e+00 3.5431182429614972e+02
-5.8717853158848943e+00 3.2280412940849139e+00 3.4958011225245332e+02
-6.0783054219244477e+00 3.3415766831515028e+00 3.4483803019926575e+02
-6.2848255279640002e+00 3.4551120722180908e+00 3.4008909634483314e+02
-6.4913456340035527e+00 3.5686474612846792e+00 3.3533577046873387e+02
-6.6978657400431061e+00 3.6821828503512677e+00 3.3057974934120489e+02
-6.9043858460826586e+00 3.7957182394178561e+00 3.2582218753060874e+02