variables="x","y","T"
zone t="Temperature" n=1000 e=950 et=quadrilateral f=fepoint
4.8480141446990741e+00 0.0000000000000000e+00 3.7300000000000000e+02
5.1191712949780701e+00 0.0000000000000000e+00 3.7018492734662578e+02
5.3903284452570661e+00 0.0000000000000000e+00 3.6557855507229289e+02
5.6614855955360621e+00 0.0000000000000000e+00 3.6118921386153289e+02
5.9326427458150590e+00 0.0000000000000000e+00 3.5645782397799246e+02
6.2037998960940541e+00 0.0000000000000000e+00 3.5175381835172652e+02
6.4749570463730510e+00 0.0000000000000000e+00 3.4693632394317217e+02
6.7461141966520470e+00 0.0000000000000000e+00 3.4209615095645353e+02
7.0172713469310430e+00 0.0000000000000000e+00 3.3722615254829401e+02
7.2884284972100390e+00 0.0000000000000000e+00 3.3232380356467337e+02
7.5595856474890351e+00 0.0000000000000000e+00 3.2742388566230090e+02
7.8307427977680319e+00 0.0000000000000000e+00 3.2249300481493253e+02
8.1018999480470271e+00 0.0000000000000000e+00 3.1757563759218334e+02
8.3730570983260240e+00 0.0000000000000000e+00 3.1263244792679916e+02
8.6442142486050209e+00 0.0000000000000000e+00 3.0770423396052331e+02
8.9153713988840160e+00 0.0000000000000000e+00 3.0275715721040552e+02
9.1865285491630111e+00 0.0000000000000000e+00 2.9782165006049939e+02
9.4576856994420080e+00 0.0000000000000000e+00 2.9287576534097809e+02
9.7288428497210049e+00 0.0000000000000000e+00 2.8793508872361423e+02
1.0000000000000000e+01 0.0000000000000000e+00 2.8300000000000000e+02
4.7628621344007476e+00 6.0168941306335066e-01 3.7300000000000000e+02
5.0343508122293814e+00 6.3598640898859760e-01 3.6866212282774222e+02
5.3058394900580144e+00 6.7028340491384453e-01 3.6501726580228416e+02
5.5773281678866473e+00 7.0458040083909146e-01 3.6075256439504693e+02
5.8488168457152803e+00 7.3887739676433839e-01 3.5638902905002499e+02
6.1203055235439141e+00 7.7317439268958532e-01 3.5177114833672698e+02
6.3917942013725471e+00 8.0747138861483225e-01 3.4706349883403936e+02
6.6632828792011800e+00 8.4176838454007930e-01 3.4226727297399083e+02
6.9347715570298130e+00 8.7606538046532612e-01 3.3740851544547786e+02
7.2062602348584468e+00 9.1036237639057316e-01 3.3252872952550996e+02
7.4777489126870798e+00 9.4465937231582009e-01 3.2760332375291182e+02
7.7492375905157127e+00 9.7895636824106702e-01 3.2268273188919818e+02
8.0207262683443457e+00 1.0132533641663140e+00 3.1772794741728711e+02
8.2922149461729795e+00 1.0475503600915608e+00 3.1278612281272569e+02
8.5637036240016133e+00 1.0818473560168078e+00 3.0781958181067625e+02
8.8351923018302454e+00 1.1161443519420546e+00 3.0286602732708019e+02
9.1066809796588792e+00 1.1504413478673019e+00 2.9789693765573026e+02
9.3781696574875113e+00 1.1847383437925487e+00 2.9293650521934228e+02
9.6496583353161451e+00 1.2190353397177955e+00 2.8797016925776819e+02
9.9211470131447790e+00 1.2533323356430426e+00 2.8300000000000000e+02
4.5981529124891338e+00 1.1806050062249724e+00 3.7300000000000000e+02
4.8659254755837216e+00 1.2493573149314765e+00 3.7011875368783814e+02
5.1336980386783093e+00 1.3181096236379803e+00 3.6624900050594209e+02
5.4014706017728988e+00 1.3868619323444844e+00 3.6201748676743750e+02
5.6692431648674866e+00 1.4556142410509885e+00 3.5740915316097170e+02
5.9370157279620743e+00 1.5243665497574923e+00 3.5266259539020962e+02
6.2047882910566639e+00 1.5931188584639964e+00 3.4781159031601919e+02
6.4725608541512516e+00 1.6618711671705004e+00 3.4289558076346691e+02
6.7403334172458393e+00 1.7306234758770043e+00 3.3796074239788379e+02
7.0081059803404280e+00 1.7993757845835081e+00 3.3298237569836590e+02
7.2758785434350157e+00 1.8681280932900122e+00 3.2801336389006605e+02
7.5436511065296044e+00 1.9368804019965162e+00 3.2301082974525764e+02
7.8114236696241939e+00 2.0056327107030203e+00 3.1802569210512866e+02
8.0791962327187807e+00 2.0743850194095241e+00 3.1301464926895977e+02
8.3469687958133694e+00 2.1431373281160280e+00 3.0802080544645355e+02
8.6147413589079580e+00 2.2118896368225323e+00 3.0300868953765701e+02
8.8825139220025449e+00 2.2806419455290361e+00 2.9800962908163672e+02
9.1502864850971335e+00 2.3493942542355395e+00 2.9300078959806132e+02
9.4180590481917221e+00 2.4181465629420438e+00 2.8799864660175757e+02
9.6858316112863108e+00 2.4868988716485481e+00 2.8300000000000000e+02
4.6868528138994918e+00 1.8556563021352228e+00 3.7300000000000000e+02
4.9295323952143875e+00 1.9517399455410942e+00 3.6896244330083050e+02
5.1722119765292840e+00 2.0478235889469656e+00 3.6411734966884035e+02
5.4148915578441796e+00 2.1439072323528370e+00 3.5917885535393492e+02
5.6575711391590753e+00 2.2399908757587084e+00 3.5427339170535276e+02
5.9002507204739709e+00 2.3360745191645802e+00 3.4942482032323778e+02
6.1429303017888675e+00 2.4321581625704516e+00 3.4459764509937207e+02
6.3856098831037622e+00 2.5282418059763225e+00 3.3982003873780866e+02
6.6282894644186587e+00 2.6243254493821944e+00 3.3503733035917446e+02
6.8709690457335544e+00 2.7204090927880653e+00 3.3029533408205657e+02
7.1136486270484509e+00 2.8164927361939371e+00 3.2553658360661819e+02
7.3563282083633457e+00 2.9125763795998081e+00 3.2081118790297552e+02
7.5990077896782413e+00 3.0086600230056795e+00 3.1606622991470522e+02
7.8416873709931378e+00 3.1047436664115513e+00 3.1134755480911372e+02
8.0843669523080344e+00 3.2008273098174227e+00 3.0661136336122536e+02
8.3270465336229300e+00 3.2969109532232941e+00 3.0189412662124437e+02
8.5697261149378257e+00 3.3929945966291650e+00 2.9716445018323816e+02
8.8124056962527213e+00 3.4890782400350369e+00 2.9244591199093691e+02
9.0550852775676187e+00 3.5851618834409087e+00 2.8772217885329957e+02
9.2977648588825126e+00 3.6812455268467796e+00 2.8300000000000000e+02
4.6595344590635781e+00 2.5616007459227248e+00 3.7300000000000000e+02
4.8755098454517389e+00 2.6803342193487474e+00 3.6612418437059546e+02
5.0914852318398998e+00 2.7990676927747700e+00 3.6059782628087879e+02
5.3074606182280606e+00 2.9178011662007921e+00 3.5544311475181149e+02
5.5234360046162214e+00 3.0365346396268147e+00 3.5060364629660313e+02
5.7394113910043822e+00 3.1552681130528373e+00 3.4586536592555689e+02
5.9553867773925440e+00 3.2740015864788599e+00 3.4125268863271856e+02
6.1713621637807048e+00 3.3927350599048824e+00 3.3666399761704145e+02
6.3873375501688656e+00 3.5114685333309050e+00 3.3214640298808195e+02
6.6033129365570264e+00 3.6302020067569281e+00 3.2762428051150300e+02
6.8192883229451873e+00 3.7489354801829502e+00 3.2315017818424627e+02
7.0352637093333490e+00 3.8676689536089732e+00 3.1866092020276915e+02
7.2512390957215089e+00 3.9864024270349954e+00 3.1420611814988081e+02
7.4672144821096706e+00 4.1051359004610184e+00 3.0973384612452821e+02
7.6831898684978315e+00 4.2238693738870410e+00 3.0528567845878393e+02
7.8991652548859914e+00 4.3426028473130627e+00 3.0082214041450447e+02
8.1151406412741540e+00 4.4613363207390861e+00 2.9637321759500276e+02
8.3311160276623131e+00 4.5800697941651078e+00 2.9191370873714487e+02
8.5470914140504739e+00 4.6988032675911304e+00 2.8745935525970640e+02
8.7630668004386365e+00 4.8175367410171530e+00 2.8300000000000000e+02
4.1710381191443258e+00 3.0304365794898440e+00 3.7300000000000000e+02
4.3773082151761757e+00 3.1803005765127330e+00 3.6745074235671865e+02
4.5835783112080257e+00 3.3301645735356216e+00 3.6204885367425027e+02
4.7898484072398757e+00 3.4800285705585106e+00 3.5714379606038881e+02
4.9961185032717257e+00 3.6298925675813996e+00 3.5224915162788977e+02
5.2023885993035757e+00 3.7797565646042881e+00 3.4751971827517394e+02
5.4086586953354256e+00 3.9296205616271771e+00 3.4279374530308581e+02
5.6149287913672747e+00 4.0794845586500657e+00 3.3815480623392352e+02
5.8211988873991256e+00 4.2293485556729546e+00 3.3350407406685338e+02
6.0274689834309756e+00 4.3792125526958436e+00 3.2890756946448016e+02
6.2337390794628247e+00 4.5290765497187317e+00 3.2429070055779630e+02
6.4400091754946756e+00 4.6789405467416207e+00 3.1971128215614533e+02
6.6462792715265246e+00 4.8288045437645097e+00 3.1510975311667676e+02
6.8525493675583746e+00 4.9786685407873987e+00 3.1053491796358861e+02
7.0588194635902246e+00 5.1285325378102877e+00 3.0594033895862930e+02
7.2650895596220755e+00 5.2783965348331767e+00 3.0136339389174287e+02
7.4713596556539237e+00 5.4282605318560639e+00 2.9677119237162213e+02
7.6776297516857746e+00 5.5781245288789529e+00 2.9218720179200761e+02
7.8838998477176245e+00 5.7279885259018419e+00 2.8759322044740799e+02
8.0901699437494745e+00 5.8778525229247318e+00 2.8300000000000000e+02
3.1543891344086097e+00 2.9621685648812202e+00 3.7300000000000000e+02
3.3720363522931103e+00 3.1665529066920448e+00 3.7283583137790436e+02
3.5896835701776104e+00 3.3709372485028690e+00 3.7019431806645554e+02
3.8073307880621110e+00 3.5753215903136937e+00 3.6602219004467480e+02
4.0249780059466111e+00 3.7797059321245183e+00 3.6151044536875628e+02
4.2426252238311113e+00 3.9840902739353430e+00 3.5662074866685344e+02
4.4602724417156114e+00 4.1884746157461681e+00 3.5164696590986779e+02
4.6779196596001116e+00 4.3928589575569914e+00 3.4651352632250905e+02
4.8955668774846126e+00 4.5972432993678174e+00 3.4135875218146276e+02
5.1132140953691119e+00 4.8016276411786407e+00 3.3611575728444336e+02
5.3308613132536129e+00 5.0060119829894658e+00 3.3087499368861774e+02
5.5485085311381130e+00 5.2103963248002900e+00 3.2557828687809086e+02
5.7661557490226132e+00 5.4147806666111151e+00 3.2029270814321774e+02
5.9838029669071133e+00 5.6191650084219393e+00 3.1496975049025082e+02
6.2014501847916144e+00 5.8235493502327644e+00 3.0965974509274724e+02
6.4190974026761145e+00 6.0279336920435886e+00 3.0432574243766237e+02
6.6367446205606138e+00 6.2323180338544129e+00 2.9900265263164198e+02
6.8543918384451148e+00 6.4367023756652380e+00 2.9366696205139766e+02
7.0720390563296158e+00 6.6410867174760631e+00 2.8833748408569312e+02
7.2896862742141160e+00 6.8454710592868873e+00 2.8300000000000000e+02
2.1565758605557965e+00 2.6068524033178675e+00 3.7300000000000000e+02
2.3785581782890124e+00 2.8751829309199741e+00 3.7243743659231615e+02
2.6005404960222283e+00 3.1435134585220808e+00 3.7272331307005544e+02
2.8225228137554441e+00 3.4118439861241874e+00 3.7200131004157720e+02
3.0445051314886600e+00 3.6801745137262940e+00 3.6934471435452610e+02
3.2664874492218758e+00 3.9485050413284006e+00 3.6557523955062311e+02
3.4884697669550917e+00 4.2168355689305068e+00 3.6086028932549090e+02
3.7104520846883067e+00 4.4851660965326134e+00 3.5567346058637833e+02
3.9324344024215230e+00 4.7534966241347201e+00 3.5008009737546786e+02
4.1544167201547380e+00 5.0218271517368267e+00 3.4431051027912577e+02
4.3763990378879551e+00 5.2901576793389333e+00 3.3835505445804722e+02
4.5983813556211697e+00 5.5584882069410400e+00 3.3233918760708224e+02
4.8203636733543860e+00 5.8268187345431466e+00 3.2622933662209135e+02
5.0423459910876014e+00 6.0951492621452532e+00 3.2010376311874398e+02
5.2643283088208168e+00 6.3634797897473590e+00 3.1392782497119543e+02
5.4863106265540331e+00 6.6318103173494665e+00 3.0775343477837879e+02
5.7082929442872494e+00 6.9001408449515731e+00 3.0155472760903967e+02
5.9302752620204648e+00 7.1684713725536797e+00 2.9536476837362574e+02
6.1522575797536803e+00 7.4368019001557855e+00 2.8917179871209260e+02
6.3742398974868966e+00 7.7051324277578921e+00 2.8300000000000000e+02
2.1752036900558847e+00 3.4275725596014737e+00 3.7300000000000000e+02
2.3427333879366259e+00 3.6915571225182466e+00 3.7318120414509252e+02
2.5102630858173667e+00 3.9555416854350187e+00 3.7148801760625832e+02
2.6777927836981075e+00 4.2195262483517908e+00 3.6793686080575810e+02
2.8453224815788491e+00 4.4835108112685633e+00 3.6387237886273942e+02
3.0128521794595904e+00 4.7474953741853367e+00 3.5916595618865824e+02
3.1803818773403312e+00 5.0114799371021084e+00 3.5427018101176901e+02
3.3479115752210720e+00 5.2754645000188809e+00 3.4908823283354201e+02
3.5154412731018136e+00 5.5394490629356534e+00 3.4383535763939352e+02
3.6829709709825549e+00 5.8034336258524268e+00 3.3843539921624256e+02
3.8505006688632957e+00 6.0674181887691985e+00 3.3301368775811630e+02
4.0180303667440365e+00 6.3314027516859710e+00 3.2750821611998083e+02
4.1855600646247781e+00 6.5953873146027435e+00 3.2200185805103825e+02
4.3530897625055180e+00 6.8593718775195152e+00 3.1644500360007191e+02
4.5206194603862597e+00 7.1233564404362886e+00 3.1089524811026740e+02
4.6881491582670023e+00 7.3873410033530620e+00 3.0531572255710751e+02
4.8556788561477422e+00 7.6513255662698327e+00 2.9974503721449372e+02
5.0232085540284839e+00 7.9153101291866061e+00 2.9416012559764835e+02
5.1907382519092247e+00 8.1792946921033778e+00 2.8858303061250353e+02
5.3582679497899655e+00 8.4432792550201512e+00 2.8300000000000000e+02
2.1264339994797421e+00 4.5189022719737588e+00 3.7300000000000000e+02
2.2386107845413732e+00 4.7572900747467299e+00 3.6876063958979955e+02
2.3507875696030034e+00 4.9956778775196993e+00 3.6362669957215849e+02
2.4629643546646345e+00 5.2340656802926704e+00 3.5895386246510765e+02
2.5751411397262651e+00 5.4724534830656406e+00 3.5404954731629107e+02
2.6873179247878958e+00 5.7108412858386108e+00 3.4934856260281720e+02
2.7994947098495269e+00 5.9492290886115811e+00 3.4455024681397828e+02
2.9116714949111575e+00 6.1876168913845522e+00 3.3985435877627583e+02
3.0238482799727882e+00 6.4260046941575215e+00 3.3509618350635395e+02
3.1360250650344188e+00 6.6643924969304926e+00 3.3039530371925019e+02
3.2482018500960499e+00 6.9027802997034629e+00 3.2564814787924979e+02
3.3603786351576801e+00 7.1411681024764322e+00 3.2093744163123893e+02
3.4725554202193107e+00 7.3795559052494024e+00 3.1619154577184531e+02
3.5847322052809423e+00 7.6179437080223735e+00 3.1147063138790020e+02
3.6969089903425725e+00 7.8563315107953438e+00 3.0672363379187703e+02
3.8090857754042040e+00 8.0947193135683158e+00 3.0199312608609301e+02
3.9212625604658342e+00 8.3331071163412851e+00 2.9724446810001427e+02
4.0334393455274657e+00 8.5714949191142562e+00 2.9250393904958560e+02
4.1456161305890955e+00 8.8098827218872238e+00 2.8775127133596510e+02
4.2577929156507270e+00 9.0482705246601967e+00 2.8300000000000000e+02
1.6364339507393855e+00 5.0364258298652658e+00 3.7300000000000000e+02
1.7129463714241269e+00 5.2719068473961217e+00 3.6597205716892347e+02
1.7894587921088687e+00 5.5073878649269785e+00 3.6082123231619914e+02
1.8659712127936101e+00 5.7428688824578344e+00 3.5564512907596799e+02
1.9424836334783515e+00 5.9783498999886904e+00 3.5096601285121341e+02
2.0189960541630931e+00 6.2138309175195463e+00 3.4621346387697616e+02
2.0955084748478345e+00 6.4493119350504031e+00 3.4165743677574250e+02
2.1720208955325764e+00 6.6847929525812599e+00 3.3704597459748271e+02
2.2485333162173178e+00 6.9202739701121159e+00 3.3253438503234753e+02
2.3250457369020592e+00 7.1557549876429718e+00 3.2798209662093410e+02
2.4015581575868010e+00 7.3912360051738286e+00 3.2348945484536830e+02
2.4780705782715424e+00 7.6267170227046845e+00 3.1896530594907409e+02
2.5545829989562838e+00 7.8621980402355414e+00 3.1448005323720810e+02
2.6310954196410252e+00 8.0976790577663973e+00 3.0997010666796427e+02
2.7076078403257666e+00 8.3331600752972523e+00 3.0548580288711491e+02
2.7841202610105085e+00 8.5686410928281109e+00 3.0098289912278170e+02
2.8606326816952503e+00 8.8041221103589677e+00 2.9649519911128021e+02
2.9371451023799917e+00 9.0396031278898228e+00 2.9199497150737244e+02
3.0136575230647331e+00 9.2750841454206796e+00 2.8750126835737399e+02
3.0901699437494745e+00 9.5105651629515346e+00 2.8300000000000000e+02
9.5980666327140141e-01 5.0314827312443677e+00 3.7300000000000000e+02
1.0079122676180248e+00 5.2836611405097633e+00 3.6882823130025554e+02
1.0560178719646480e+00 5.5358395497751589e+00 3.6354696092710708e+02
1.1041234763112715e+00 5.7880179590405554e+00 3.5880447147296991e+02
1.1522290806578948e+00 6.0401963683059501e+00 3.5379555263505955e+02
1.2003346850045182e+00 6.2923747775713466e+00 3.4904057486589824e+02
1.2484402893511417e+00 6.5445531868367421e+00 3.4417640273742717e+02
1.2965458936977650e+00 6.7967315961021377e+00 3.3944587390731061e+02
1.3446514980443882e+00 7.0489100053675333e+00 3.3465859936856822e+02
1.3927571023910117e+00 7.3010884146329289e+00 3.2995100406825276e+02
1.4408627067376349e+00 7.5532668238983254e+00 3.2520719924927658e+02
1.4889683110842582e+00 7.8054452331637210e+00 3.2051530747130232e+02
1.5370739154308815e+00 8.0576236424291157e+00 3.1579732406959971e+02
1.5851795197775049e+00 8.3098020516945112e+00 3.1111451201531145e+02
1.6332851241241284e+00 8.5619804609599086e+00 3.0641249662113341e+02
1.6813907284707519e+00 8.8141588702253042e+00 3.0173376795507994e+02
1.7294963328173751e+00 9.0663372794906998e+00 2.9704216843090398e+02
1.7776019371639984e+00 9.3185156887560954e+00 2.9236419641199865e+02
1.8257075415106216e+00 9.5706940980214910e+00 2.8767942194955015e+02
1.8738131458572451e+00 9.8228725072868865e+00 2.8300000000000000e+02
3.1252691439991631e-01 4.9674730558443283e+00 3.7300000000000000e+02
3.2912577128903292e-01 5.2313043310252958e+00 3.6934088182969163e+02
3.4572462817814964e-01 5.4951356062062633e+00 3.6551201994854785e+02
3.6232348506726636e-01 5.7589668813872317e+00 3.6067692712179820e+02
3.7892234195638297e-01 6.0227981565681992e+00 3.5599575610093552e+02
3.9552119884549963e-01 6.2866294317491667e+00 3.5101772305405990e+02
4.1212005573461630e-01 6.5504607069301350e+00 3.4617948736436199e+02
4.2871891262373302e-01 6.8142919821111025e+00 3.4122897252376987e+02
4.4531776951284963e-01 7.0781232572920700e+00 3.3637134296636941e+02
4.6191662640196629e-01 7.3419545324730375e+00 3.3145837463626356e+02
4.7851548329108301e-01 7.6057858076540059e+00 3.2660760074714779e+02
4.9511434018019967e-01 7.8696170828349734e+00 3.2172307639654224e+02
5.1171319706931628e-01 8.1334483580159418e+00 3.1688143127268592e+02
5.2831205395843295e-01 8.3972796331969075e+00 3.1201669715858134e+02
5.4491091084754961e-01 8.6611109083778750e+00 3.0718156257694608e+02
5.6150976773666639e-01 8.9249421835588443e+00 3.0233080751487995e+02
5.7810862462578305e-01 9.1887734587398118e+00 2.9749935573931054e+02
5.9470748151489961e-01 9.4526047339207793e+00 2.9265921225550994e+02
6.1130633840401638e-01 9.7164360091017485e+00 2.8783002021794914e+02
6.2790519529313304e-01 9.9802672842827160e+00 2.8300000000000000e+02
-3.2188369541451489e-01 5.1161948312750853e+00 3.7300000000000000e+02
-3.3799009014496856e-01 5.3721986445912764e+00 3.6846897787930499e+02
-3.5409648487542217e-01 5.6282024579074674e+00 3.6329814847738544e+02
-3.7020287960587578e-01 5.8842062712236585e+00 3.5868367050907329e+02
-3.8630927433632944e-01 6.1402100845398495e+00 3.5375309767847023e+02
-4.0241566906678305e-01 6.3962138978560406e+00 3.4907492108570545e+02
-4.1852206379723672e-01 6.6522177111722316e+00 3.4424645696416923e+02
-4.3462845852769033e-01 6.9082215244884226e+00 3.3954700538019335e+02
-4.5073485325814400e-01 7.1642253378046137e+00 3.3477006073056208e+02
-4.6684124798859766e-01 7.4202291511208047e+00 3.3006957151373035e+02
-4.8294764271905127e-01 7.6762329644369958e+00 3.2532291642501849e+02
-4.9905403744950488e-01 7.9322367777531868e+00 3.2062608012021360e+02
-5.1516043217995855e-01 8.1882405910693770e+00 3.1589848461521586e+02
-5.3126682691041216e-01 8.4442444043855698e+00 3.1120479507342066e+02
-5.4737322164086588e-01 8.7002482177017608e+00 3.0648972960333771e+02
-5.6347961637131949e-01 8.9562520310179519e+00 3.0179719145715211e+02
-5.7958601110177299e-01 9.2122558443341411e+00 2.9709066777431343e+02
-5.9569240583222671e-01 9.4682596576503322e+00 2.9239728838181225e+02
-6.1179880056268032e-01 9.7242634709665250e+00 2.8769680980113668e+02
-6.2790519529313404e-01 9.9802672842827160e+00 2.8300000000000000e+02
-9.8216731143397940e-01 5.1487013539052731e+00 3.7300000000000000e+02
-1.0290960395615198e+00 5.3947103619779897e+00 3.6675897559325938e+02
-1.0760247676890604e+00 5.6407193700507063e+00 3.6180591249766439e+02
-1.1229534958166008e+00 5.8867283781234230e+00 3.5670209510956005e+02
-1.1698822239441413e+00 6.1327373861961396e+00 3.5208667705529359e+02
-1.2168109520716819e+00 6.3787463942688563e+00 3.4730642820084671e+02
-1.2637396801992222e+00 6.6247554023415720e+00 3.4273120856184789e+02
-1.3106684083267626e+00 6.8707644104142886e+00 3.3805820692147387e+02
-1.3575971364543031e+00 7.1167734184870053e+00 3.3348841706646050e+02
-1.4045258645818435e+00 7.3627824265597210e+00 3.2885804746959849e+02
-1.4514545927093840e+00 7.6087914346324377e+00 3.2428808997156636e+02
-1.4983833208369244e+00 7.8548004427051534e+00 3.1967775605253701e+02
-1.5453120489644649e+00 8.1008094507778701e+00 3.1510646414101416e+02
-1.5922407770920053e+00 8.3468184588505867e+00 3.1050695084813384e+02
-1.6391695052195459e+00 8.5928274669233033e+00 3.0593340281761613e+02
-1.6860982333470862e+00 8.8388364749960200e+00 3.0134025348293625e+02
-1.7330269614746268e+00 9.0848454830687366e+00 2.9676290901805015e+02
-1.7799556896021673e+00 9.3308544911414533e+00 2.9217288073375016e+02
-1.8268844177297077e+00 9.5768634992141699e+00 2.8758908034220013e+02
-1.8738131458572482e+00 9.8228725072868865e+00 2.8300000000000000e+02
-1.5605482198437250e+00 4.8028735651811783e+00 3.7300000000000000e+02
-1.6410546263650805e+00 5.0506468071690929e+00 3.6862966855559858e+02
-1.7215610328864357e+00 5.2984200491570057e+00 3.6368332207374954e+02
-1.8020674394077911e+00 5.5461932911449194e+00 3.5913466519130111e+02
-1.8825738459291461e+00 5.7939665331328323e+00 3.5423157542160720e+02
-1.9630802524505016e+00 6.0417397751207460e+00 3.4957819742874659e+02
-2.0435866589718565e+00 6.2895130171086597e+00 3.4475864045820458e+02
-2.1240930654932120e+00 6.5372862590965735e+00 3.4006453109316533e+02
-2.2045994720145674e+00 6.7850595010844872e+00 3.3527761698695781e+02
-2.2851058785359228e+00 7.0328327430724000e+00 3.3056048843196254e+02
-2.3656122850572778e+00 7.2806059850603129e+00 3.2578573270113014e+02
-2.4461186915786333e+00 7.5283792270482266e+00 3.2105452568106682e+02
-2.5266250980999887e+00 7.7761524690361412e+00 3.1628501325837669e+02
-2.6071315046213437e+00 8.0239257110240541e+00 3.1154475199540661e+02
-2.6876379111426996e+00 8.2716989530119687e+00 3.0677851475866220e+02
-2.7681443176640546e+00 8.5194721949998815e+00 3.0203187801827625e+02
-2.8486507241854095e+00 8.7672454369877943e+00 2.9726877658142257e+02
-2.9291571307067654e+00 9.0150186789757090e+00 2.9251730060584208e+02
-3.0096635372281200e+00 9.2627919209636200e+00 2.8775773736312397e+02
-3.0901699437494754e+00 9.5105651629515346e+00 2.8300000000000000e+02
-2.0438727310740186e+00 4.3434506456985291e+00 3.7300000000000000e+02
-2.1603948460517404e+00 4.5910727445912487e+00 3.7014061868629545e+02
-2.2769169610294617e+00 4.8386948434839683e+00 3.6635962310079100e+02
-2.3934390760071831e+00 5.0863169423766870e+00 3.6170457293758869e+02
-2.5099611909849044e+00 5.3339390412694065e+00 3.5719847471800733e+02
-2.6264833059626262e+00 5.5815611401621261e+00 3.5232721942329346e+02
-2.7430054209403480e+00 5.8291832390548457e+00 3.4755707583418967e+02
-2.8595275359180690e+00 6.0768053379475644e+00 3.4261357142499548e+02
-2.9760496508957903e+00 6.3244274368402831e+00 3.3773406458471908e+02
-3.0925717658735121e+00 6.5720495357330027e+00 3.3276083811193729e+02
-3.2090938808512339e+00 6.8196716346257222e+00 3.2783026095398151e+02
-3.3256159958289548e+00 7.0672937335184409e+00 3.2284351710919839e+02
-3.4421381108066762e+00 7.3149158324111596e+00 3.1788691891415505e+02
-3.5586602257843980e+00 7.5625379313038792e+00 3.1289443019498270e+02
-3.6751823407621198e+00 7.8101600301965988e+00 3.0792367173707743e+02
-3.7917044557398407e+00 8.0577821290893166e+00 3.0293019143620995e+02
-3.9082265707175630e+00 8.3054042279820379e+00 2.9795161451281098e+02
-4.0247486856952834e+00 8.5530263268747557e+00 2.9296107200926008e+02
-4.1412708006730057e+00 8.8006484257674753e+00 2.8797982740246073e+02
-4.2577929156507270e+00 9.0482705246601949e+00 2.8300000000000000e+02
-2.6509627888098644e+00 4.1772489413236684e+00 3.7300000000000000e+02
-2.7934525341246066e+00 4.4017768525708512e+00 3.6840248070336969e+02
-2.9359422794393493e+00 4.6263047638180348e+00 3.6384219091063636e+02
-3.0784320247540915e+00 4.8508326750652175e+00 3.5964266471350203e+02
-3.2209217700688337e+00 5.0753605863124012e+00 3.5497751222055763e+02
-3.3634115153835760e+00 5.2998884975595848e+00 3.5044194678293678e+02
-3.5059012606983182e+00 5.5244164088067675e+00 3.4566977755932243e+02
-3.6483910060130609e+00 5.7489443200539512e+00 3.4097543076348796e+02
-3.7908807513278036e+00 5.9734722313011348e+00 3.3615623355408457e+02
-3.9333704966425453e+00 6.1980001425483175e+00 3.3138836906026125e+02
-4.0758602419572876e+00 6.4225280537955003e+00 3.2654876591412045e+02
-4.2183499872720303e+00 6.6470559650426839e+00 3.2174492044764941e+02
-4.3608397325867720e+00 6.8715838762898667e+00 3.1689649040954379e+02
-4.5033294779015147e+00 7.0961117875370503e+00 3.1207384902519902e+02
-4.6458192232162574e+00 7.3206396987842339e+00 3.0722248483803793e+02
-4.7883089685309992e+00 7.5451676100314167e+00 3.0238924645624104e+02
-4.9307987138457428e+00 7.7696955212786012e+00 2.9753836809665910e+02
-5.0732884591604845e+00 7.9942234325257839e+00 2.9269816766272254e+02
-5.2157782044752263e+00 8.2187513437729667e+00 2.8784883713076442e+02
-5.3582679497899690e+00 8.4432792550201494e+00 2.8300000000000000e+02
-3.1910829193830867e+00 3.8573566224730387e+00 3.7300000000000000e+02
-3.3586174971780243e+00 4.0598711385406627e+00 3.6848803619733957e+02
-3.5261520749729618e+00 4.2623856546082868e+00 3.6425078735184161e+02
-3.6936866527678993e+00 4.4649001706759108e+00 3.5941675757458171e+02
-3.8612212305628364e+00 4.6674146867435340e+00 3.5482721740943589e+02
-4.0287558083577739e+00 4.8699292028111580e+00 3.4999343226601582e+02
-4.1962903861527119e+00 5.0724437188787821e+00 3.4530269056773517e+02
-4.3638249639476481e+00 5.2749582349464053e+00 3.4047988554709593e+02
-4.5313595417425860e+00 5.4774727510140302e+00 3.3574162589529402e+02
-4.6988941195375231e+00 5.6799872670816534e+00 3.3092598490749316e+02
-4.8664286973324611e+00 5.8825017831492783e+00 3.2616332559520612e+02
-5.0339632751273982e+00 6.0850162992169015e+00 3.2135207066842685e+02
-5.2014978529223361e+00 6.2875308152845255e+00 3.1657622796005171e+02
-5.3690324307172732e+00 6.4900453313521487e+00 3.1176823347690413e+02
-5.5365670085122094e+00 6.6925598474197718e+00 3.0698451562544960e+02
-5.7041015863071474e+00 6.8950743634873968e+00 3.0217969984565758e+02
-5.8716361641020853e+00 7.0975888795550217e+00 2.9739057625280338e+02
-6.0391707418970224e+00 7.3001033956226449e+00 2.9258956195900646e+02
-6.2067053196919595e+00 7.5026179116902680e+00 2.8779641065531644e+02
-6.3742398974868975e+00 7.7051324277578921e+00 2.8300000000000000e+02
-3.7342386620417347e+00 3.5066835152974698e+00 3.7300000000000000e+02
-3.9213674837350179e+00 3.6824091755074391e+00 3.6882720422387791e+02
-4.1084963054283019e+00 3.8581348357174083e+00 3.6351814299570259e+02
-4.2956251271215846e+00 4.0338604959273772e+00 3.5871260181055823e+02
-4.4827539488148682e+00 4.2095861561373473e+00 3.5372769997077091e+02
-4.6698827705081509e+00 4.3853118163473157e+00 3.4899934961205446e+02
-4.8570115922014345e+00 4.5610374765572850e+00 3.4415920323168291e+02
-5.0441404138947181e+00 4.7367631367672551e+00 3.3946057634970543e+02
-5.2312692355880008e+00 4.9124887969772235e+00 3.3468912513058501e+02
-5.4183980572812835e+00 5.0882144571871928e+00 3.2999993326602254e+02
-5.6055268789745671e+00 5.2639401173971621e+00 3.2526271997931758e+02
-5.7926557006678507e+00 5.4396657776071313e+00 3.2057668158763778e+02
-5.9797845223611334e+00 5.6153914378171006e+00 3.1585763430720220e+02
-6.1669133440544170e+00 5.7911170980270699e+00 3.1117213641990048e+02
-6.3540421657476998e+00 5.9668427582370382e+00 3.0646355847646100e+02
-6.5411709874409834e+00 6.1425684184470075e+00 3.0177677755792257e+02
-6.7282998091342670e+00 6.3182940786569777e+00 2.9707490505570445e+02
-6.9154286308275497e+00 6.4940197388669461e+00 2.9238544422065280e+02
-7.1025574525208341e+00 6.6697453990769162e+00 2.8768939753546846e+02
-7.2896862742141169e+00 6.8454710592868846e+00 2.8300000000000000e+02
-4.2800090270763143e+00 3.1096085784177911e+00 3.7300000000000000e+02
-4.4805438121643748e+00 3.2553056281286827e+00 3.6619005834831529e+02
-4.6810785972524362e+00 3.4010026778395743e+00 3.6124874006152703e+02
-4.8816133823404968e+00 3.5466997275504659e+00 3.5624203714213769e+02
-5.0821481674285582e+00 3.6923967772613575e+00 3.5158851751523076e+02
-5.2826829525166188e+00 3.8380938269722491e+00 3.4682606489770558e+02
-5.4832177376046793e+00 3.9837908766831407e+00 3.4224770941347788e+02
-5.6837525226927417e+00 4.1294879263940327e+00 3.3758851494425147e+02
-5.8842873077808022e+00 4.2751849761049243e+00 3.3303704952723228e+02
-6.0848220928688637e+00 4.4208820258158159e+00 3.2843199189458954e+02
-6.2853568779569242e+00 4.5665790755267075e+00 3.2389328999886339e+02
-6.4858916630449857e+00 4.7122761252376000e+00 3.1931825117831107e+02
-6.6864264481330453e+00 4.8579731749484907e+00 3.1478625974530934e+02
-6.8869612332211076e+00 5.0036702246593832e+00 3.1022862024840919e+02
-7.0874960183091691e+00 5.1493672743702747e+00 3.0569938701320393e+02
-7.2880308033972296e+00 5.2950643240811663e+00 3.0115220113722859e+02
-7.4885655884852902e+00 5.4407613737920579e+00 2.9662227402432910e+02
-7.6891003735733516e+00 5.5864584235029495e+00 2.9208083283573700e+02
-7.8896351586614122e+00 5.7321554732138411e+00 2.8754514795181137e+02
-8.0901699437494727e+00 5.8778525229247327e+00 2.8300000000000000e+02
-4.4148082700649187e+00 2.4270613850073040e+00 3.7300000000000000e+02
-4.6436639821898513e+00 2.5528758774288751e+00 3.6958392938287056e+02
-4.8725196943147830e+00 2.6786903698504458e+00 3.6465203652510678e+02
-5.1013754064397157e+00 2.8045048622720166e+00 3.5989728478685061e+02
-5.3302311185646483e+00 2.9303193546935877e+00 3.5492934545332173e+02
-5.5590868306895809e+00 3.0561338471151585e+00 3.5013433396647906e+02
-5.7879425428145135e+00 3.1819483395367296e+00 3.4522189756857284e+02
-6.0167982549394461e+00 3.3077628319583008e+00 3.4043223890709368e+02
-6.2456539670643787e+00 3.4335773243798720e+00 3.3557202679646468e+02
-6.4745096791893104e+00 3.5593918168014427e+00 3.3079171747524907e+02
-6.7033653913142439e+00 3.6852063092230134e+00 3.2596695356479887e+02