variables="x","y","T"
zone t="Temperature" n=1000 e=950 et=quadrilateral f=fepoint
4.7965241464779753e+00 0.0000000000000000e+00 3.7300000000000000e+02
5.0703912966633453e+00 0.0000000000000000e+00 3.7046522285239666e+02
5.3442584468487144e+00 0.0000000000000000e+00 3.6605454722136108e+02
5.6181255970340844e+00 0.0000000000000000e+00 3.6182543195307130e+02
5.8919927472194544e+00 0.0000000000000000e+00 3.5711556269682205e+02
6.1658598974048235e+00 0.0000000000000000e+00 3.5243398337872151e+02
6.4397270475901935e+00 0.0000000000000000e+00 3.4757187556151246e+02
6.7135941977755635e+00 0.0000000000000000e+00 3.4270573870134302e+02
6.9874613479609327e+00 0.0000000000000000e+00 3.3777784010773513e+02
7.2613284981463027e+00 0.0000000000000000e+00 3.3283433212671491e+02
7.5351956483316727e+00 0.0000000000000000e+00 3.2787583267695783e+02
7.8090627985170418e+00 0.0000000000000000e+00 3.2289909040776541e+02
8.0829299487024109e+00 0.0000000000000000e+00 3.1792489332261169e+02
8.3567970988877818e+00 0.0000000000000000e+00 3.1293437475450941e+02
8.6306642490731509e+00 0.0000000000000000e+00 3.0795140512172640e+02
8.9045313992585200e+00 0.0000000000000000e+00 3.0295649303151259e+02
9.1783985494438909e+00 0.0000000000000000e+00 2.9796837280522800e+02
9.4522656996292618e+00 0.0000000000000000e+00 2.9297455543296496e+02
9.7261328498146291e+00 0.0000000000000000e+00 2.8798380420537143e+02
1.0000000000000000e+01 0.0000000000000000e+00 2.8300000000000000e+02
4.7867275933549820e+00 6.0470432165937016e-01 3.7300000000000000e+02
5.0569601943965496e+00 6.3884263818482656e-01 3.6870611904365251e+02
5.3271927954381182e+00 6.7298095471028296e-01 3.6514427273008630e+02
5.5974253964796858e+00 7.0711927123573937e-01 3.6076691401078477e+02
5.8676579975212553e+00 7.4125758776119599e-01 3.5636249485185397e+02
6.1378905985628229e+00 7.7539590428665239e-01 3.5165704401496788e+02
6.4081231996043915e+00 8.0953422081210880e-01 3.4693241377569251e+02
6.6783558006459591e+00 8.4367253733756520e-01 3.4209831726954638e+02
6.9485884016875277e+00 8.7781085386302160e-01 3.3724303085363636e+02
7.2188210027290962e+00 9.1194917038847811e-01 3.3235364890100146e+02
7.4890536037706648e+00 9.4608748691393463e-01 3.2744249182528739e+02
7.7592862048122324e+00 9.8022580343939103e-01 3.2252666699391955e+02
8.0295188058537992e+00 1.0143641199648472e+00 3.1759137967437374e+02
8.2997514068953677e+00 1.0485024364903039e+00 3.1266173806704325e+02
8.5699840079369380e+00 1.0826407530157605e+00 3.0771700107914558e+02
8.8402166089785066e+00 1.1167790695412170e+00 3.0277978129879540e+02
9.1104492100200734e+00 1.1509173860666733e+00 2.9783324386830390e+02
9.3806818110616401e+00 1.1850557025921296e+00 2.9289175830238315e+02
9.6509144121032104e+00 1.2191940191175861e+00 2.8794793982839099e+02
9.9211470131447790e+00 1.2533323356430426e+00 2.8300000000000000e+02
4.7529295815111547e+00 1.2203449004329070e+00 3.7300000000000000e+02
5.0125560041308992e+00 1.2870056357600459e+00 3.6961676885405416e+02
5.2721824267506445e+00 1.3536663710871848e+00 3.6496358543908696e+02
5.5318088493703899e+00 1.4203271064143239e+00 3.6041077441373312e+02
5.7914352719901352e+00 1.4869878417414630e+00 3.5559493830838022e+02
6.0510616946098796e+00 1.5536485770686019e+00 3.5085077232512702e+02
6.3106881172296250e+00 1.6203093123957411e+00 3.4601640652961976e+02
6.5703145398493703e+00 1.6869700477228800e+00 3.4120328800328292e+02
6.8299409624691148e+00 1.7536307830500188e+00 3.3636472714561967e+02
7.0895673850888601e+00 1.8202915183771580e+00 3.3152246978698702e+02
7.3491938077086045e+00 1.8869522537042969e+00 3.2668052195375424e+02
7.6088202303283508e+00 1.9536129890314360e+00 3.2182600019855903e+02
7.8684466529480961e+00 2.0202737243585753e+00 3.1698066022739380e+02
8.1280730755678405e+00 2.0869344596857138e+00 3.1212169799809232e+02
8.3876994981875850e+00 2.1535951950128531e+00 3.0727308897340828e+02
8.6473259208073312e+00 2.2202559303399920e+00 3.0241367371316642e+02
8.9069523434270756e+00 2.2869166656671309e+00 2.9756203239006976e+02
9.1665787660468201e+00 2.3535774009942698e+00 2.9270480186527993e+02
9.4262051886665645e+00 2.4202381363214087e+00 2.8785044280144257e+02
9.6858316112863108e+00 2.4868988716485481e+00 2.8300000000000000e+02
4.8094050987080701e+00 1.9041781842330945e+00 3.7300000000000000e+02
5.0456345597698835e+00 1.9977080443706572e+00 3.6730229067157472e+02
5.2818640208316960e+00 2.0912379045082194e+00 3.6220073117839047e+02
5.5180934818935086e+00 2.1847677646457817e+00 3.5715447954717956e+02
5.7543229429553220e+00 2.2782976247833440e+00 3.5238009883486262e+02
5.9905524040171345e+00 2.3718274849209067e+00 3.4760487057833160e+02
6.2267818650789470e+00 2.4653573450584689e+00 3.4293160846641695e+02
6.4630113261407596e+00 2.5588872051960312e+00 3.3826489646036151e+02
6.6992407872025730e+00 2.6524170653335934e+00 3.3362941968885502e+02
6.9354702482643864e+00 2.7459469254711562e+00 3.2900880389522450e+02
7.1716997093261989e+00 2.8394767856087184e+00 3.2439066034717769e+02
7.4079291703880106e+00 2.9330066457462807e+00 3.1978966243440573e+02
7.6441586314498240e+00 3.0265365058838434e+00 3.1518077040952824e+02
7.8803880925116374e+00 3.1200663660214056e+00 3.1058726335273201e+02
8.1166175535734499e+00 3.2135962261589683e+00 3.0598384456010342e+02
8.3528470146352625e+00 3.3071260862965302e+00 3.0139168633099843e+02
8.5890764756970750e+00 3.4006559464340929e+00 2.9679164246001744e+02
8.8253059367588893e+00 3.4941858065716551e+00 2.9219709767669934e+02
9.0615353978207001e+00 3.5877156667092174e+00 2.8759952877289601e+02
9.2977648588825126e+00 3.6812455268467796e+00 2.8300000000000000e+02
4.5646774967596331e+00 2.5094526896032567e+00 3.7300000000000000e+02
4.7856453548480014e+00 2.6309307975724092e+00 3.6680303696284000e+02
5.0066132129363705e+00 2.7524089055415617e+00 3.6151222074660507e+02
5.2275810710247379e+00 2.8738870135107137e+00 3.5659757587408899e+02
5.4485489291131071e+00 2.9953651214798662e+00 3.5174719730801644e+02
5.6695167872014753e+00 3.1168432294490187e+00 3.4704607788940257e+02
5.8904846452898445e+00 3.2383213374181712e+00 3.4236707189160995e+02
6.1114525033782128e+00 3.3597994453873237e+00 3.3774368116314440e+02
6.3324203614665819e+00 3.4812775533564766e+00 3.3314181837432301e+02
6.5533882195549502e+00 3.6027556613256291e+00 3.2855364738482837e+02
6.7743560776433185e+00 3.7242337692947811e+00 3.2398687061879349e+02
6.9953239357316868e+00 3.8457118772639336e+00 3.1941651297244164e+02
7.2162917938200550e+00 3.9671899852330856e+00 3.1486499123732511e+02
7.4372596519084233e+00 4.0886680932022381e+00 3.1030435451369561e+02
7.6582275099967925e+00 4.2101462011713906e+00 3.0575827396326480e+02
7.8791953680851607e+00 4.3316243091405431e+00 3.0120321868148454e+02
8.1001632261735299e+00 4.4531024171096956e+00 2.9665713750710000e+02
8.3211310842618982e+00 4.5745805250788480e+00 2.9210499674730085e+02
8.5420989423502665e+00 4.6960586330480005e+00 2.8755406300516808e+02
8.7630668004386365e+00 4.8175367410171530e+00 2.8300000000000000e+02
3.9832485072400603e+00 2.8939994401237734e+00 3.7300000000000000e+02
4.1994022670563451e+00 3.0510443392185609e+00 3.6950975509165181e+02
4.4155560268726308e+00 3.2080892383133479e+00 3.6480143844741440e+02
4.6317097866889148e+00 3.3651341374081349e+00 3.5994760781921792e+02
4.8478635465051996e+00 3.5221790365029224e+00 3.5511458924249547e+02
5.0640173063214853e+00 3.6792239355977094e+00 3.5025434695177955e+02
5.2801710661377701e+00 3.8362688346924969e+00 3.4542918315980182e+02
5.4963248259540549e+00 3.9933137337872844e+00 3.4060684165827365e+02
5.7124785857703397e+00 4.1503586328820710e+00 3.3579191910586479e+02
5.9286323455866254e+00 4.3074035319768589e+00 3.3099017477576893e+02
6.1447861054029094e+00 4.4644484310716459e+00 3.2618067241651727e+02
6.3609398652191951e+00 4.6214933301664329e+00 3.2138677351221889e+02
6.5770936250354799e+00 4.7785382292612208e+00 3.1658009696267408e+02
6.7932473848517638e+00 4.9355831283560070e+00 3.1178762002687228e+02
7.0094011446680495e+00 5.0926280274507949e+00 3.0698297175868333e+02
7.2255549044843344e+00 5.2496729265455819e+00 3.0218915046689432e+02
7.4417086643006201e+00 5.4067178256403698e+00 2.9738695671752254e+02
7.6578624241169040e+00 5.5637627247351569e+00 2.9259121392263506e+02
7.8740161839331888e+00 5.7208076238299439e+00 2.8779384814099336e+02
8.0901699437494745e+00 5.8778525229247318e+00 2.8300000000000000e+02
3.5208741137378365e+00 3.3063208679145957e+00 3.7300000000000000e+02
3.7192326484997462e+00 3.4925919306184006e+00 3.6862672600357871e+02
3.9175911832616555e+00 3.6788629933222055e+00 3.6445055772890748e+02
4.1159497180235647e+00 3.8651340560260099e+00 3.5995631653743482e+02
4.3143082527854739e+00 4.0514051187298143e+00 3.5534918390097624e+02
4.5126667875473832e+00 4.2376761814336197e+00 3.5067116653707450e+02
4.7110253223092933e+00 4.4239472441374241e+00 3.4593810213767745e+02
4.9093838570712025e+00 4.6102183068412295e+00 3.4116616596449364e+02
5.1077423918331117e+00 4.7964893695450339e+00 3.3637618035746800e+02
5.3061009265950219e+00 4.9827604322488392e+00 3.3155507424356131e+02
5.5044594613569302e+00 5.1690314949526437e+00 3.2673376144025883e+02
5.7028179961188403e+00 5.3553025576564481e+00 3.2188639732451742e+02
5.9011765308807496e+00 5.5415736203602535e+00 3.1704585191436104e+02
6.0995350656426588e+00 5.7278446830640579e+00 3.1218472754664072e+02
6.2978936004045689e+00 5.9141157457678633e+00 3.0733172970160132e+02
6.4962521351664773e+00 6.1003868084716677e+00 3.0246425934954846e+02
6.6946106699283865e+00 6.2866578711754721e+00 2.9760308691263344e+02
6.8929692046902966e+00 6.4729289338792775e+00 2.9273422980356128e+02
7.0913277394522067e+00 6.6591999965830828e+00 2.8786777702416828e+02
7.2896862742141160e+00 6.8454710592868873e+00 2.8300000000000000e+02
3.0516276347387743e+00 3.6887841411707996e+00 3.7300000000000000e+02
3.2265019643570962e+00 3.9001708930964361e+00 3.6844783856015010e+02
3.4013762939754186e+00 4.1115576450220725e+00 3.6400854275342812e+02
3.5762506235937410e+00 4.3229443969477090e+00 3.5972435538013229e+02
3.7511249532120630e+00 4.5343311488733455e+00 3.5526445139178099e+02
3.9259992828303854e+00 4.7457179007989820e+00 3.5071542025688422e+02
4.1008736124487077e+00 4.9571046527246185e+00 3.4606078989687046e+02
4.2757479420670297e+00 5.1684914046502550e+00 3.4135388931437393e+02
4.4506222716853516e+00 5.3798781565758915e+00 3.3658160515031085e+02
4.6254966013036736e+00 5.5912649085015280e+00 3.3178930284269615e+02
4.8003709309219964e+00 5.8026516604271645e+00 3.2695247802722861e+02
4.9752452605403183e+00 6.0140384123528010e+00 3.2211234766782792e+02
5.1501195901586412e+00 6.2254251642784375e+00 3.1724067590530331e+02
5.3249939197769631e+00 6.4368119162040740e+00 3.1237265681683260e+02
5.4998682493952851e+00 6.6481986681297105e+00 3.0748287654281751e+02
5.6747425790136079e+00 6.8595854200553479e+00 3.0259820086465339e+02
5.8496169086319290e+00 7.0709721719809826e+00 2.9770007933195501e+02
6.0244912382502527e+00 7.2823589239066200e+00 2.9280490879052400e+02
6.1993655678685746e+00 7.4937456758322565e+00 2.8790335914150222e+02
6.3742398974868966e+00 7.7051324277578921e+00 2.8300000000000000e+02
2.4749622779560951e+00 3.8999165129924553e+00 3.7300000000000000e+02
2.6267152080526146e+00 4.1390408678360187e+00 3.7004740575308097e+02
2.7784681381491345e+00 4.3781652226795815e+00 3.6640434827737499e+02
2.9302210682456540e+00 4.6172895775231444e+00 3.6210078395091614e+02
3.0819739983421730e+00 4.8564139323667073e+00 3.5763557357930409e+02
3.2337269284386929e+00 5.0955382872102701e+00 3.5294641413764748e+02
3.3854798585352124e+00 5.3346626420538330e+00 3.4817868494158222e+02
3.5372327886317314e+00 5.5737869968973959e+00 3.4330369448608997e+02
3.6889857187282509e+00 5.8129113517409587e+00 3.3839571433038435e+02
3.8407386488247708e+00 6.0520357065845216e+00 3.3342472943681491e+02
3.9924915789212903e+00 6.2911600614280845e+00 3.2844402350414970e+02
4.1442445090178097e+00 6.5302844162716482e+00 3.2342184064913511e+02
4.2959974391143296e+00 6.7694087711152102e+00 3.1840070247197684e+02
4.4477503692108487e+00 7.0085331259587731e+00 3.1335147974778994e+02
4.5995032993073677e+00 7.2476574808023360e+00 3.0830721028743739e+02
4.7512562294038885e+00 7.4867818356458997e+00 3.0324506991711917e+02
4.9030091595004066e+00 7.7259061904894608e+00 2.9818807528502344e+02
5.0547620895969265e+00 7.9650305453330255e+00 2.9312252065577030e+02
5.2065150196934464e+00 8.2041549001765883e+00 2.8806082003103455e+02
5.3582679497899655e+00 8.4432792550201512e+00 2.8300000000000000e+02
2.0395606071679260e+00 4.3342869159420268e+00 3.7300000000000000e+02
2.1563096760354421e+00 4.5823913164008783e+00 3.6982474220159781e+02
2.2730587449029578e+00 4.8304957168597289e+00 3.6552906734228321e+02
2.3898078137704735e+00 5.0786001173185804e+00 3.6107808056664260e+02
2.5065568826379896e+00 5.3267045177774310e+00 3.5634662118431118e+02
2.6233059515055053e+00 5.5748089182362817e+00 3.5161487385899011e+02
2.7400550203730210e+00 5.8229133186951332e+00 3.4678236245401393e+02
2.8568040892405371e+00 6.0710177191539838e+00 3.4195700887006626e+02
2.9735531581080528e+00 6.3191221196128353e+00 3.3707700740843478e+02
3.0903022269755684e+00 6.5672265200716859e+00 3.3220655057351973e+02
3.2070512958430841e+00 6.8153309205305366e+00 3.2729933912019345e+02
3.3238003647106003e+00 7.0634353209893881e+00 3.2240328046249942e+02
3.4405494335781164e+00 7.3115397214482396e+00 3.1748074384552973e+02
3.5572985024456316e+00 7.5596441219070902e+00 3.1256907775401766e+02
3.6740475713131473e+00 7.8077485223659400e+00 3.0763884525520729e+02
3.7907966401806634e+00 8.0558529228247924e+00 3.0271754476823401e+02
3.9075457090481795e+00 8.3039573232836439e+00 2.9778498007640911e+02
4.0242947779156948e+00 8.5520617237424936e+00 2.9285826416731584e+02
4.1410438467832105e+00 8.8001661242013434e+00 2.8792761547687684e+02
4.2577929156507270e+00 9.0482705246601967e+00 2.8300000000000000e+02
1.5870535744523224e+00 4.8844486587070524e+00 3.7300000000000000e+02
1.6661649623100672e+00 5.1279284747199192e+00 3.6733320656858706e+02
1.7452763501678121e+00 5.3714082907327878e+00 3.6238761895772791e+02
1.8243877380255569e+00 5.6148881067456546e+00 3.5746051817383142e+02
1.9034991258833018e+00 5.8583679227585224e+00 3.5276638154189487e+02
1.9826105137410466e+00 6.1018477387713901e+00 3.4802583342450498e+02
2.0617219015987915e+00 6.3453275547842578e+00 3.4337556897309702e+02
2.1408332894565363e+00 6.5888073707971246e+00 3.3869235884406214e+02
2.2199446773142810e+00 6.8322871868099924e+00 3.3405548729403216e+02
2.2990560651720262e+00 7.0757670028228601e+00 3.2939369082432961e+02
2.3781674530297710e+00 7.3192468188357278e+00 3.2476188937665529e+02
2.4572788408875157e+00 7.5627266348485955e+00 3.2010982578257483e+02
2.5363902287452604e+00 7.8062064508614624e+00 3.1547931087192177e+02
2.6155016166030056e+00 8.0496862668743301e+00 3.1083260649045889e+02
2.6946130044607499e+00 8.2931660828871969e+00 3.0620120100655180e+02
2.7737243923184951e+00 8.5366458989000655e+00 3.0155784044701477e+02
2.8528357801762398e+00 8.7801257149129324e+00 2.9692380850906619e+02
2.9319471680339846e+00 9.0236055309257992e+00 2.9228220495696019e+02
3.0110585558917302e+00 9.2670853469386696e+00 2.8764341678640176e+02
3.0901699437494745e+00 9.5105651629515346e+00 2.8300000000000000e+02
9.7410002501395654e-01 5.1064111574901014e+00 3.7300000000000000e+02
1.0214533471636034e+00 5.3546459653741421e+00 3.6757628346907552e+02
1.0688066693132501e+00 5.6028807732581845e+00 3.6234583348721958e+02
1.1161599914628968e+00 5.8511155811422251e+00 3.5750971208067199e+02
1.1635133136125437e+00 6.0993503890262666e+00 3.5262336458038180e+02
1.2108666357621904e+00 6.3475851969103081e+00 3.4790895528554222e+02
1.2582199579118372e+00 6.5958200047943487e+00 3.4315943488568502e+02
1.3055732800614841e+00 6.8440548126783911e+00 3.3849518524963923e+02
1.3529266022111308e+00 7.0922896205624317e+00 3.3380954620203340e+02
1.4002799243607775e+00 7.3405244284464732e+00 3.2917430857842868e+02
1.4476332465104242e+00 7.5887592363305147e+00 3.2452249833635960e+02
1.4949865686600710e+00 7.8369940442145563e+00 3.1990416446418362e+02
1.5423398908097177e+00 8.0852288520985969e+00 3.1527186963569852e+02
1.5896932129593646e+00 8.3334636599826393e+00 3.1066263035205645e+02
1.6370465351090115e+00 8.5816984678666817e+00 3.0604210299724986e+02
1.6843998572586580e+00 8.8299332757507205e+00 3.0143663366051368e+02
1.7317531794083050e+00 9.0781680836347629e+00 2.9682314201091640e+02
1.7791065015579515e+00 9.3264028915188035e+00 2.9221752843624313e+02
1.8264598237075984e+00 9.5746376994028459e+00 2.8760773888972591e+02
1.8738131458572451e+00 9.8228725072868865e+00 2.8300000000000000e+02
3.2192754039434757e-01 5.1168917272732228e+00 3.7300000000000000e+02
3.3803162749428367e-01 5.3728588618526691e+00 3.6853767444290918e+02
3.5413571459421972e-01 5.6288259964321163e+00 3.6388586089478957e+02
3.7023980169415582e-01 5.8847931310115635e+00 3.5891009802130458e+02
3.8634388879409187e-01 6.1407602655910107e+00 3.5410097591335665e+02
4.0244797589402798e-01 6.3967274001704570e+00 3.4919336520637546e+02
4.1855206299396408e-01 6.6526945347499051e+00 3.4440541653558932e+02
4.3465615009390018e-01 6.9086616693293523e+00 3.3958207139693053e+02
4.5076023719383623e-01 7.1646288039087986e+00 3.3483071774604787e+02
4.6686432429377228e-01 7.4205959384882458e+00 3.3006042638000486e+02
4.8296841139370839e-01 7.6765630730676930e+00 3.2533633558429710e+02
4.9907249849364443e-01 7.9325302076471402e+00 3.2059827325409316e+02
5.1517658559358048e-01 8.1884973422265865e+00 3.1589139961450104e+02
5.3128067269351664e-01 8.4444644768060346e+00 3.1117324877990137e+02
5.4738475979345269e-01 8.7004316113854809e+00 3.0647615777519417e+02
5.6348884689338874e-01 8.9563987459649272e+00 3.0177068855139731e+02
5.7959293399332479e-01 9.2123658805443753e+00 2.9707840560021333e+02
5.9569702109326095e-01 9.4683330151238216e+00 2.9238150475375141e+02
6.1180110819319700e-01 9.7243001497032679e+00 2.8769111722812374e+02
6.2790519529313304e-01 9.9802672842827160e+00 2.8300000000000000e+02
-3.2402260613353939e-01 5.1501918436156444e+00 3.7300000000000000e+02
-3.4001642661562331e-01 5.4044063404928586e+00 3.6828561227216505e+02
-3.5601024709770723e-01 5.6586208373700728e+00 3.6324466427320220e+02
-3.7200406757979115e-01 5.9128353342472870e+00 3.5846050252492387e+02
-3.8799788806187507e-01 6.1670498311245012e+00 3.5353351613609806e+02
-4.0399170854395899e-01 6.4212643280017154e+00 3.4878240926876282e+02
-4.1998552902604297e-01 6.6754788248789305e+00 3.4396525792434056e+02
-4.3597934950812689e-01 6.9296933217561447e+00 3.3924379530905696e+02
-4.5197316999021081e-01 7.1839078186333589e+00 3.3448927984798274e+02
-4.6796699047229479e-01 7.4381223155105731e+00 3.2979181833095458e+02
-4.8396081095437871e-01 7.6923368123877873e+00 3.2507352156972769e+02
-4.9995463143646263e-01 7.9465513092650015e+00 3.2039223760076959e+02
-5.1594845191854655e-01 8.2007658061422166e+00 3.1569571027634856e+02
-5.3194227240063041e-01 8.4549803030194308e+00 3.1102409216727034e+02
-5.4793609288271439e-01 8.7091947998966450e+00 3.0634106441803846e+02
-5.6392991336479836e-01 8.9634092967738592e+00 3.0167424502787338e+02
-5.7992373384688223e-01 9.2176237936510734e+00 2.9699978568359290e+02
-5.9591755432896620e-01 9.4718382905282876e+00 2.9233436961580355e+02
-6.1191137481105007e-01 9.7260527874055018e+00 2.8766557958672308e+02
-6.2790519529313404e-01 9.9802672842827160e+00 2.8300000000000000e+02
-9.7582229812132859e-01 5.1154396292957500e+00 3.7300000000000000e+02
-1.0230849743179560e+00 5.3631992544531792e+00 3.6712462031148050e+02
-1.0703476505145832e+00 5.6109588796106067e+00 3.6216798576979295e+02
-1.1176103267112105e+00 5.8587185047680350e+00 3.5721015305012423e+02
-1.1648730029078380e+00 6.1064781299254633e+00 3.5255272221405295e+02
-1.2121356791044653e+00 6.3542377550828908e+00 3.4779529955271909e+02
-1.2593983553010926e+00 6.6019973802403191e+00 3.4316867922927099e+02
-1.3066610314977201e+00 6.8497570053977483e+00 3.3848211434128302e+02
-1.3539237076943476e+00 7.0975166305551767e+00 3.3386331047062629e+02
-1.4011863838909746e+00 7.3452762557126041e+00 3.2920788620493101e+02
-1.4484490600876021e+00 7.5930358808700325e+00 3.2459308577861361e+02
-1.4957117362842294e+00 7.8407955060274599e+00 3.1995376774217658e+02
-1.5429744124808566e+00 8.0885551311848882e+00 3.1534112443610684e+02
-1.5902370886774841e+00 8.3363147563423166e+00 3.1071114799480625e+02
-1.6374997648741116e+00 8.5840743814997449e+00 3.0609896121635069e+02
-1.6847624410707389e+00 8.8318340066571732e+00 3.0147467737340571e+02
-1.7320251172673664e+00 9.0795936318146016e+00 2.9686098411265635e+02
-1.7792877934639935e+00 9.3273532569720299e+00 2.9223954248121407e+02
-1.8265504696606207e+00 9.5751128821294582e+00 2.8762175533360426e+02
-1.8738131458572482e+00 9.8228725072868865e+00 2.8300000000000000e+02
-1.5470412522407229e+00 4.7613033933522591e+00 3.7300000000000000e+02
-1.6282585517938151e+00 5.0112645391206421e+00 3.6878252632982230e+02
-1.7094758513469075e+00 5.2612256848890251e+00 3.6406791833720064e+02
-1.7906931508999997e+00 5.5111868306574081e+00 3.5952293466121762e+02
-1.8719104504530919e+00 5.7611479764257911e+00 3.5471425369939755e+02
-1.9531277500061841e+00 6.0111091221941741e+00 3.5004270434228908e+02
-2.0343450495592763e+00 6.2610702679625572e+00 3.4524318791233105e+02
-2.1155623491123685e+00 6.5110314137309402e+00 3.4051409721323120e+02
-2.1967796486654612e+00 6.7609925594993232e+00 3.3571452920174528e+02
-2.2779969482185529e+00 7.0109537052677053e+00 3.3095517125965955e+02
-2.3592142477716456e+00 7.2609148510360884e+00 3.2615332173768309e+02
-2.4404315473247378e+00 7.5108759968044723e+00 3.2137749499715397e+02
-2.5216488468778304e+00 7.7608371425728562e+00 3.1657425437504821e+02
-2.6028661464309222e+00 8.0107982883412383e+00 3.1178907172795016e+02
-2.6840834459840144e+00 8.2607594341096213e+00 3.0698583775485952e+02
-2.7653007455371066e+00 8.5107205798780026e+00 3.0219492873662625e+02
-2.8465180450901988e+00 8.7606817256463874e+00 2.9739302627141478e+02
-2.9277353446432914e+00 9.0106428714147704e+00 2.9259837389666581e+02
-3.0089526441963836e+00 9.2606040171831534e+00 2.8779858317321623e+02
-3.0901699437494754e+00 9.5105651629515346e+00 2.8300000000000000e+02
-2.0410897615263379e+00 4.3375365343671053e+00 3.7300000000000000e+02
-2.1577583485855159e+00 4.5854699022772678e+00 3.7008046570213600e+02
-2.2744269356446947e+00 4.8334032701874312e+00 3.6624551064532187e+02
-2.3910955227038730e+00 5.0813366380975928e+00 3.6167761134469475e+02
-2.5077641097630510e+00 5.3292700060077554e+00 3.5715106599724635e+02
-2.6244326968222298e+00 5.5772033739179188e+00 3.5233348365194496e+02
-2.7411012838814082e+00 5.8251367418280804e+00 3.4755814740679529e+02
-2.8577698709405865e+00 6.0730701097382438e+00 3.4264326145809451e+02
-2.9744384579997649e+00 6.3210034776484063e+00 3.3775869685295379e+02
-3.0911070450589433e+00 6.5689368455585688e+00 3.3279944040522116e+02
-3.2077756321181217e+00 6.8168702134687313e+00 3.2786219145651887e+02
-3.3244442191773000e+00 7.0648035813788939e+00 3.2288134601236879e+02
-3.4411128062364789e+00 7.3127369492890573e+00 3.1791716208240359e+02
-3.5577813932956568e+00 7.5606703171992189e+00 3.1292605146716204e+02
-3.6744499803548352e+00 7.8086036851093814e+00 3.0794757905750237e+02
-3.7911185674140140e+00 8.0565370530195448e+00 3.0295272325294269e+02
-3.9077871544731915e+00 8.3044704209297056e+00 2.9796686019856719e+02
-4.0244557415323703e+00 8.5524037888398698e+00 2.9297300982548188e+02
-4.1411243285915491e+00 8.8003371567500324e+00 2.8798552340002374e+02
-4.2577929156507270e+00 9.0482705246601949e+00 2.8300000000000000e+02
-2.6566054072339078e+00 4.1861402852299747e+00 3.7300000000000000e+02
-2.7987981726315954e+00 4.4102002310084050e+00 3.6836677543532528e+02
-2.9409909380292825e+00 4.6342601767868343e+00 3.6377710785992014e+02
-3.0831837034269700e+00 4.8583201225652655e+00 3.5949623222280121e+02
-3.2253764688246576e+00 5.0823800683436957e+00 3.5485208321429980e+02
-3.3675692342223447e+00 5.3064400141221251e+00 3.5028673473024367e+02
-3.5097619996200322e+00 5.5304999599005562e+00 3.4553810258382720e+02
-3.6519547650177198e+00 5.7545599056789865e+00 3.4083701881748812e+02
-3.7941475304154069e+00 5.9786198514574158e+00 3.3603937664602790e+02
-3.9363402958130944e+00 6.2026797972358469e+00 3.3127344187183689e+02
-4.0785330612107824e+00 6.4267397430142772e+00 3.2645281907154629e+02
-4.2207258266084695e+00 6.6507996887927074e+00 3.2165429465184678e+02
-4.3629185920061575e+00 6.8748596345711386e+00 3.1682259844860391e+02
-4.5051113574038446e+00 7.0989195803495679e+00 3.1200686814277310e+02
-4.6473041228015317e+00 7.3229795261279982e+00 3.0717036549389820e+02
-4.7894968881992197e+00 7.5470394719064293e+00 3.0234508233099774e+02
-4.9316896535969068e+00 7.7710994176848587e+00 2.9750741392220328e+02
-5.0738824189945948e+00 7.9951593634632898e+00 2.9267614797291583e+02
-5.2160751843922819e+00 8.2192193092417192e+00 2.8783822283161368e+02
-5.3582679497899690e+00 8.4432792550201494e+00 2.8300000000000000e+02
-3.2042601227887979e+00 3.8732851251496534e+00 3.7300000000000000e+02
-3.3711011635623818e+00 4.0749612989711395e+00 3.6833872868504113e+02
-3.5379422043359661e+00 4.2766374727926255e+00 3.6403165074405842e+02
-3.7047832451095499e+00 4.4783136466141125e+00 3.5920141543112101e+02
-3.8716242858831347e+00 4.6799898204355985e+00 3.5457407982848537e+02
-4.0384653266567181e+00 4.8816659942570846e+00 3.4976223107330162e+02
-4.2053063674303033e+00 5.0833421680785715e+00 3.4506166787870916e+02
-4.3721474082038876e+00 5.2850183419000576e+00 3.4026304669550041e+02
-4.5389884489774710e+00 5.4866945157215437e+00 3.3552877405783977e+02
-4.7058294897510553e+00 5.6883706895430297e+00 3.3073778105717969e+02
-4.8726705305246396e+00 5.8900468633645158e+00 3.2598571641789897e+02
-5.0395115712982239e+00 6.0917230371860027e+00 3.2119883495752725e+02
-5.2063526120718082e+00 6.2933992110074888e+00 3.1643696534914949e+02
-5.3731936528453925e+00 6.4950753848289757e+00 3.1165263603052000e+02
-5.5400346936189777e+00 6.6967515586504627e+00 3.0688488439522985e+02
-5.7068757343925611e+00 6.8984277324719478e+00 3.0210273783160864e+02
-5.8737167751661445e+00 7.1001039062934330e+00 2.9733100604443251e+02
-6.0405578159397288e+00 7.3017800801149200e+00 2.9255137021230655e+02
-6.2073988567133140e+00 7.5034562539364069e+00 2.8777702409452002e+02
-6.3742398974868975e+00 7.7051324277578921e+00 2.8300000000000000e+02
-3.7368590156327706e+00 3.5091441911067958e+00 3.7300000000000000e+02
-3.9238499239791573e+00 3.6847403420636429e+00 3.6883541541452962e+02
-4.1108408323255441e+00 3.8603364930204895e+00 3.6351988090917547e+02
-4.2978317406719304e+00 4.0359326439773362e+00 3.5869119038718407e+02
-4.4848226490183176e+00 4.2115287949341838e+00 3.5371981616268897e+02
-4.6718135573647039e+00 4.3871249458910304e+00 3.4897013941687811e+02
-4.8588044657110903e+00 4.5627210968478762e+00 3.4414055790810676e+02
-5.0457953740574766e+00 4.7383172478047229e+00 3.3942935027275053e+02
-5.2327862824038638e+00 4.9139133987615704e+00 3.3466645749123285e+02
-5.4197771907502501e+00 5.0895095497184171e+00 3.2997019118576696e+02
-5.6067680990966373e+00 5.2651057006752637e+00 3.2524065601368744e+02
-5.7937590074430227e+00 5.4407018516321104e+00 3.2055082635690405e+02
-5.9807499157894100e+00 5.6162980025889571e+00 3.1583880901798301e+02
-6.1677408241357963e+00 5.7918941535458037e+00 3.1115167555896971e+02
-6.3547317324821835e+00 5.9674903045026504e+00 3.0644937685512969e+02
-6.5417226408285698e+00 6.1430864554594979e+00 3.0176260712873346e+02
-6.7287135491749561e+00 6.3186826064163446e+00 2.9706607649460028e+02
-6.9157044575213433e+00 6.4942787573731913e+00 2.9237815236586141e+02
-7.1026953658677296e+00 6.6698749083300379e+00 2.8768610995748725e+02
-7.2896862742141169e+00 6.8454710592868846e+00 2.8300000000000000e+02
-4.2772453565430189e+00 3.1076006542419572e+00 3.7300000000000000e+02
-4.4779255979749371e+00 3.2534033841726293e+00 3.6621894706173350e+02
-4.6786058394068561e+00 3.3992061141033019e+00 3.6130019393585832e+02
-4.8792860808387752e+00 3.5450088440339744e+00 3.5630331793159081e+02
-5.0799663222706934e+00 3.6908115739646465e+00 3.5163636761130169e+02
-5.2806465637026125e+00 3.8366143038953191e+00 3.4688351037267046e+02
-5.4813268051345307e+00 3.9824170338259917e+00 3.4229086616717183e+02
-5.6820070465664489e+00 4.1282197637566638e+00 3.3763686359694219e+02
-5.8826872879983689e+00 4.2740224936873368e+00 3.3307354713386457e+02
-6.0833675294302871e+00 4.4198252236180089e+00 3.2847121421172676e+02
-6.2840477708622053e+00 4.5656279535486810e+00 3.2392258277122608e+02
-6.4847280122941244e+00 4.7114306834793540e+00 3.1934888432559927e+02
-6.6854082537260426e+00 4.8572334134100252e+00 3.1480847199138645e+02
-6.8860884951579617e+00 5.0030361433406982e+00 3.1025113407248398e+02
-7.0867687365898808e+00 5.1488388732713712e+00 3.0571482638477431e+02
-7.2874489780217981e+00 5.2946416032020425e+00 3.0116693494105260e+02
-7.4881292194537172e+00 5.4404443331327155e+00 2.9663128309864175e+02
-7.6888094608856354e+00 5.5862470630633867e+00 2.9208800249619890e+02
-7.8894897023175545e+00 5.7320497929940597e+00 2.8754826682110991e+02
-8.0901699437494727e+00 5.8778525229247327e+00 2.8300000000000000e+02
-4.4142992948689246e+00 2.4267815735254556e+00 3.7300000000000000e+02
-4.6431817951620671e+00 2.5526107928671236e+00 3.6957452536988535e+02
-4.8720642954552096e+00 2.6784400122087919e+00 3.6462512515090822e+02
-5.1009467957483521e+00 2.8042692315504598e+00 3.5988021354204176e+02
-5.3298292960414955e+00 2.9300984508921286e+00 3.5492465188908528e+02
-5.5587117963346380e+00 3.0559276702337965e+00 3.5012620046631753e+02
-5.7875942966277805e+00 3.1817568895754649e+00 3.4522502356784793e+02
-6.0164767969209230e+00 3.3075861089171328e+00 3.4043002230056209e+02
-6.2453592972140655e+00 3.4334153282588011e+00 3.3557768304000876e+02
-6.4742417975072089e+00 3.5592445476004699e+00 3.3079198762776042e+02
-6.7031242978003513e+00 3.6850737669421378e+00 3.2597292981232010e+02