variables="x","y","T"
zone t="Temperature" n=1000 e=950 et=quadrilateral f=fepoint
4.8315353420593734e+00 0.0000000000000000e+00 3.7300000000000000e+02
5.1035597977404592e+00 0.0000000000000000e+00 3.7013921952549020e+02
5.3755842534215450e+00 0.0000000000000000e+00 3.6563916835984173e+02
5.6476087091026308e+00 0.0000000000000000e+00 3.6137808455159524e+02
5.9196331647837157e+00 0.0000000000000000e+00 3.5666411203424713e+02
6.1916576204648015e+00 0.0000000000000000e+00 3.5200100778702125e+02
6.4636820761458873e+00 0.0000000000000000e+00 3.4715664846411494e+02
6.7357065318269731e+00 0.0000000000000000e+00 3.4232144190776114e+02
7.0077309875080580e+00 0.0000000000000000e+00 3.3741907307972286e+02
7.2797554431891438e+00 0.0000000000000000e+00 3.3250976442821775e+02
7.5517798988702296e+00 0.0000000000000000e+00 3.2758013211640991e+02
7.8238043545513154e+00 0.0000000000000000e+00 3.2263834949607394e+02
8.0958288102324012e+00 0.0000000000000000e+00 3.1769467352831197e+02
8.3678532659134870e+00 0.0000000000000000e+00 3.1273904851598326e+02
8.6398777215945728e+00 0.0000000000000000e+00 3.0778755832061472e+02
8.9119021772756568e+00 0.0000000000000000e+00 3.0282707185529591e+02
9.1839266329567444e+00 0.0000000000000000e+00 2.9787103800411177e+02
9.4559510886378284e+00 0.0000000000000000e+00 2.9291076783491951e+02
9.7279755443189160e+00 0.0000000000000000e+00 2.8795234472621206e+02
1.0000000000000000e+01 0.0000000000000000e+00 2.8300000000000000e+02
4.7934029371669791e+00 6.0554761369405374e-01 3.7300000000000000e+02
5.0632842043237050e+00 6.3964154642821103e-01 3.6870182255011457e+02
5.3331654714804309e+00 6.7373547916236831e-01 3.6509934201086588e+02
5.6030467386371585e+00 7.0782941189652582e-01 3.6070260361926796e+02
5.8729280057938844e+00 7.4192334463068310e-01 3.5629442495545982e+02
6.1428092729506103e+00 7.7601727736484039e-01 3.5158174224821039e+02
6.4126905401073371e+00 8.1011121009899767e-01 3.4686319542424786e+02
6.6825718072640630e+00 8.4420514283315495e-01 3.4202769534638082e+02
6.9524530744207897e+00 8.7829907556731235e-01 3.3718060274410374e+02
7.2223343415775156e+00 9.1239300830146952e-01 3.3229273031224528e+02
7.4922156087342424e+00 9.4648694103562692e-01 3.2738995983636818e+02
7.7620968758909683e+00 9.8058087376978420e-01 3.2247719494849929e+02
8.0319781430476951e+00 1.0146748065039415e+00 3.1754999714467345e+02
8.3018594102044219e+00 1.0487687392380989e+00 3.1262436490696069e+02
8.5717406773611469e+00 1.0828626719722561e+00 3.0768724252418548e+02
8.8416219445178736e+00 1.1169566047064134e+00 3.0275474040965486e+02
9.1115032116746004e+00 1.1510505374405708e+00 2.9781521318336627e+02
9.3813844788313272e+00 1.1851444701747280e+00 2.9287909946507835e+02
9.6512657459880522e+00 1.2192384029088852e+00 2.8794154298965333e+02
9.9211470131447790e+00 1.2533323356430426e+00 2.8300000000000000e+02
4.7388268296124121e+00 1.2167239291842169e+00 3.7300000000000000e+02
4.9991955023320918e+00 1.2835752419454975e+00 3.6974272775385128e+02
5.2595641750517705e+00 1.3504265547067782e+00 3.6514532337170579e+02
5.5199328477714484e+00 1.4172778674680586e+00 3.6060855329639486e+02
5.7803015204911272e+00 1.4841291802293390e+00 3.5578616724135657e+02
6.0406701932108069e+00 1.5509804929906197e+00 3.5103985718719076e+02
6.3010388659304857e+00 1.6178318057519003e+00 3.4618952063043361e+02
6.5614075386501645e+00 1.6846831185131810e+00 3.4136893337221335e+02
6.8217762113698424e+00 1.7515344312744614e+00 3.3651339177943339e+02
7.0821448840895229e+00 1.8183857440357423e+00 3.3166128542998337e+02
7.3425135568092008e+00 1.8852370567970227e+00 3.2680269462674812e+02
7.6028822295288796e+00 1.9520883695583033e+00 3.2193703435608001e+02
7.8632509022485584e+00 2.0189396823195840e+00 3.1707557563629234e+02
8.1236195749682363e+00 2.0857909950808642e+00 3.1220464750152541e+02
8.3839882476879168e+00 2.1526423078421453e+00 3.0734050516976885e+02
8.6443569204075956e+00 2.2194936206034255e+00 3.0246850458991349e+02
8.9047255931272726e+00 2.2863449333647057e+00 2.9760205221784742e+02
9.1650942658469532e+00 2.3531962461259868e+00 2.9273177156978244e+02
9.4254629385666320e+00 2.4200475588872674e+00 2.8786368693320117e+02
9.6858316112863108e+00 2.4868988716485481e+00 2.8300000000000000e+02
4.8067844828789905e+00 1.9031406090260630e+00 3.7300000000000000e+02
5.0431518710897025e+00 1.9967250783850483e+00 3.6731223685384606e+02
5.2795192593004137e+00 2.0903095477440332e+00 3.6221667989129060e+02
5.5158866475111257e+00 2.1838940171030181e+00 3.5717334837547912e+02
5.7522540357218377e+00 2.2774784864620035e+00 3.5240901298935455e+02
5.9886214239325488e+00 2.3710629558209888e+00 3.4762978882621189e+02
6.2249888121432608e+00 2.4646474251799737e+00 3.4296238901613782e+02
6.4613562003539720e+00 2.5582318945389586e+00 3.3829033380393059e+02
6.6977235885646840e+00 2.6518163638979440e+00 3.3365765740459585e+02
6.9340909767753960e+00 2.7454008332569289e+00 3.2903179118486980e+02
7.1704583649861071e+00 2.8389853026159138e+00 3.2441465007122451e+02
7.4068257531968191e+00 2.9325697719748991e+00 3.1980879921076365e+02
7.6431931414075311e+00 3.0261542413338840e+00 3.1519981351794468e+02
7.8795605296182432e+00 3.1197387106928693e+00 3.1060193391784247e+02
8.1159279178289552e+00 3.2133231800518547e+00 3.0599764215089084e+02
8.3522953060396663e+00 3.3069076494108391e+00 3.0140165886628887e+02
8.5886626942503774e+00 3.4004921187698240e+00 2.9680005830401001e+02
8.8250300824610903e+00 3.4940765881288094e+00 2.9220229321250906e+02
9.0613974706718015e+00 3.5876610574877947e+00 2.8760234796597257e+02
9.2977648588825126e+00 3.6812455268467796e+00 2.8300000000000000e+02
4.5665055597538178e+00 2.5104576757388108e+00 3.7300000000000000e+02
4.7873772040003866e+00 2.6318828897008291e+00 3.6677162839615812e+02
5.0082488482469563e+00 2.7533081036628468e+00 3.6147184477114575e+02
5.2291204924935251e+00 2.8747333176248651e+00 3.5656290796035671e+02
5.4499921367400956e+00 2.9961585315868833e+00 3.5170862926446716e+02
5.6708637809866644e+00 3.1175837455489011e+00 3.4701725918224804e+02
5.8917354252332341e+00 3.2390089595109193e+00 3.4233581217068945e+02
6.1126070694798038e+00 3.3604341734729370e+00 3.3772019598661848e+02
6.3334787137263726e+00 3.4818593874349553e+00 3.3311687816903662e+02
6.5543503579729423e+00 3.6032846013969730e+00 3.2853473008026890e+02
6.7752220022195111e+00 3.7247098153589913e+00 3.2396724349983668e+02
6.9960936464660817e+00 3.8461350293210095e+00 3.1940175077856861e+02
7.2169652907126496e+00 3.9675602432830273e+00 3.1485012194864913e+02
7.4378369349592202e+00 4.0889854572450455e+00 3.1029352662009660e+02
7.6587085792057898e+00 4.2104106712070637e+00 3.0574789099921162e+02
7.8795802234523586e+00 4.3318358851690810e+00 3.0119616439566676e+02
8.1004518676989274e+00 4.4532610991310992e+00 2.9665107344338543e+02
8.3213235119454971e+00 4.5746863130931175e+00 2.9210150639798422e+02
8.5421951561920668e+00 4.6961115270551357e+00 2.8755214582606800e+02
8.7630668004386365e+00 4.8175367410171530e+00 2.8300000000000000e+02
3.9821269620227202e+00 2.8931845898262947e+00 3.7300000000000000e+02
4.1983397505346547e+00 3.0502723757788441e+00 3.6954071899286726e+02
4.4145525390465892e+00 3.2073601617313936e+00 3.6484125065768120e+02
4.6307653275585237e+00 3.3644479476839431e+00 3.5997711893662836e+02
4.8469781160704581e+00 3.5215357336364921e+00 3.5514741513903016e+02
5.0631909045823926e+00 3.6786235195890415e+00 3.5027609262875006e+02
5.2794036930943271e+00 3.8357113055415906e+00 3.4545354363523950e+02
5.4956164816062616e+00 3.9927990914941400e+00 3.4062346086560888e+02
5.7118292701181952e+00 4.1498868774466890e+00 3.3581047348987875e+02
5.9280420586301306e+00 4.3069746633992381e+00 3.3100315137803852e+02
6.1442548471420650e+00 4.4640624493517880e+00 3.2619493928104168e+02
6.3604676356539995e+00 4.6211502353043370e+00 3.2139674019684105e+02
6.5766804241659340e+00 4.7782380212568869e+00 3.1659078112493501e+02
6.7928932126778685e+00 4.9353258072094359e+00 3.1179486029523252e+02
7.0091060011898030e+00 5.0924135931619858e+00 3.0699038044251768e+02
7.2253187897017366e+00 5.2495013791145340e+00 3.0219382941793685e+02
7.4415315782136711e+00 5.4065891650670830e+00 2.9739124836174420e+02
7.6577443667256055e+00 5.5636769510196329e+00 2.9259351618114351e+02
7.8739571552375400e+00 5.7207647369721819e+00 2.8779519566346755e+02
8.0901699437494745e+00 5.8778525229247318e+00 2.8300000000000000e+02
3.5224151097293683e+00 3.3077679594718581e+00 3.7300000000000000e+02
3.7206925394390917e+00 3.4939628594621226e+00 3.6864247490830292e+02
3.9189699691488156e+00 3.6801577594523875e+00 3.6445008292819125e+02
4.1172473988585390e+00 3.8663526594426521e+00 3.5995722059553452e+02
4.3155248285682628e+00 4.0525475594329166e+00 3.5533447905372174e+02
4.5138022582779858e+00 4.2387424594231815e+00 3.5066011077550962e+02
4.7120796879877096e+00 4.4249373594134465e+00 3.4591869159451034e+02
4.9103571176974325e+00 4.6111322594037105e+00 3.4115106261525136e+02
5.1086345474071564e+00 4.7973271593939755e+00 3.3635687450204637e+02
5.3069119771168793e+00 4.9835220593842395e+00 3.3154004706122919e+02
5.5051894068266041e+00 5.1697169593745054e+00 3.2671672494311770e+02
5.7034668365363270e+00 5.3559118593647694e+00 3.2187335772270825e+02
5.9017442662460500e+00 5.5421067593550335e+00 3.1703205757825981e+02
6.1000216959557738e+00 5.7283016593452984e+00 3.1217452403654022e+02
6.2982991256654985e+00 5.9144965593355643e+00 3.0732162441062417e+02
6.4965765553752215e+00 6.1006914593258283e+00 3.0245724231685000e+02
6.6948539850849444e+00 6.2868863593160924e+00 2.9759688708622292e+02
6.8931314147946683e+00 6.4730812593063574e+00 2.9273054293835975e+02
7.0914088445043930e+00 6.6592761592966232e+00 2.8786564550120028e+02
7.2896862742141160e+00 6.8454710592868873e+00 2.8300000000000000e+02
3.0592359461539815e+00 3.6979810098090367e+00 3.7300000000000000e+02
3.2337098383293985e+00 3.9088837160168715e+00 3.6834933623490997e+02
3.4081837305048150e+00 4.1197864222247054e+00 3.6388697302495143e+02
3.5826576226802311e+00 4.3306891284325397e+00 3.5957517544148004e+02
3.7571315148556481e+00 4.5415918346403750e+00 3.5512370956672021e+02
3.9316054070310651e+00 4.7524945408482093e+00 3.5056973434870878e+02
4.1060792992064812e+00 4.9633972470560437e+00 3.4592792074392685e+02
4.2805531913818973e+00 5.1742999532638780e+00 3.4122390971180459e+02
4.4550270835573142e+00 5.3852026594717133e+00 3.3646511804224559e+02
4.6295009757327312e+00 5.5961053656795476e+00 3.3167909466319082e+02
4.8039748679081473e+00 5.8070080718873820e+00 3.2685569447274617e+02
4.9784487600835634e+00 6.0179107780952164e+00 3.2202356237648797e+02
5.1529226522589804e+00 6.2288134843030507e+00 3.1716501518562075e+02
5.3273965444343974e+00 6.4397161905108860e+00 3.1230602869322774e+02
5.5018704366098135e+00 6.6506188967187203e+00 3.0742892652172134e+02
5.6763443287852313e+00 6.8615216029265556e+00 3.0255401984242212e+02
5.8508182209606474e+00 7.0724243091343899e+00 2.9766796115405032e+02
6.0252921131360635e+00 7.2833270153422243e+00 2.9278311435505560e+02
6.1997660053114805e+00 7.4942297215500586e+00 2.8789280034455749e+02
6.3742398974868966e+00 7.7051324277578921e+00 2.8300000000000000e+02
2.4737026461085332e+00 3.8979316508043116e+00 3.7300000000000000e+02
2.6255218726180822e+00 4.1371604720788291e+00 3.7005373450122602e+02
2.7773410991276317e+00 4.3763892933533475e+00 3.6639996929667439e+02
2.9291603256371803e+00 4.6156181146278650e+00 3.6212224574361488e+02
3.0809795521467298e+00 4.8548469359023834e+00 3.5764908933634041e+02
3.2327987786562788e+00 5.0940757571769009e+00 3.5297109383892945e+02
3.3846180051658274e+00 5.3333045784514184e+00 3.4819738790089195e+02
3.5364372316753769e+00 5.5725333997259368e+00 3.4332755997768345e+02
3.6882564581849260e+00 5.8117622210004543e+00 3.3841445134160421e+02
3.8400756846944746e+00 6.0509910422749718e+00 3.3344585235125021e+02
3.9918949112040241e+00 6.2902198635494901e+00 3.2846054986135829e+02
4.1437141377135731e+00 6.5294486848240076e+00 3.2343929463647305e+02
4.2955333642231217e+00 6.7686775060985251e+00 3.1841403509515277e+02
4.4473525907326712e+00 7.0079063273730435e+00 3.1336482044631873e+02
4.5991718172422207e+00 7.2471351486475619e+00 3.0831693642513096e+02
4.7509910437517702e+00 7.4863639699220803e+00 3.0325408801418524e+02
4.9028102702613188e+00 7.7255927911965969e+00 2.9819405529096599e+02
5.0546294967708665e+00 7.9648216124711144e+00 2.9312712792738699e+02
5.2064487232804160e+00 8.2040504337456319e+00 2.8806294680731054e+02
5.3582679497899655e+00 8.4432792550201512e+00 2.8300000000000000e+02
2.0304162962308401e+00 4.3148542660317339e+00 3.7300000000000000e+02
2.1476466446213602e+00 4.5639814375384953e+00 3.6999477237756872e+02
2.2648769930118808e+00 4.8131086090452566e+00 3.6579341960610350e+02
2.3821073414024010e+00 5.0622357805520171e+00 3.6134042902604745e+02
2.4993376897929211e+00 5.3113629520587784e+00 3.5662153816162248e+02
2.6165680381834417e+00 5.5604901235655397e+00 3.5187231336099103e+02
2.7337983865739619e+00 5.8096172950723011e+00 3.4703338658367977e+02
2.8510287349644825e+00 6.0587444665790624e+00 3.4218717635436144e+02
2.9682590833550027e+00 6.3078716380858229e+00 3.3729411805518038e+02
3.0854894317455233e+00 6.5569988095925851e+00 3.3240182583708611e+02
3.2027197801360434e+00 6.8061259810993455e+00 3.2747866796276492e+02
3.3199501285265636e+00 7.0552531526061069e+00 3.2256059836265354e+02
3.4371804769170842e+00 7.3043803241128682e+00 3.1762061432065673e+02
3.5544108253076043e+00 7.5535074956196286e+00 3.1268713998522145e+02
3.6716411736981249e+00 7.8026346671263900e+00 3.0773852568570396e+02
3.7888715220886451e+00 8.0517618386331513e+00 3.0279587193249029e+02
3.9061018704791657e+00 8.3008890101399135e+00 2.9784426775764513e+02
4.0233322188696858e+00 8.5500161816466740e+00 2.9289692884395305e+02
4.1405625672602060e+00 8.7991433531534344e+00 2.8794696524498625e+02
4.2577929156507270e+00 9.0482705246601967e+00 2.8300000000000000e+02
1.5870191459583503e+00 4.8843426986979441e+00 3.7300000000000000e+02
1.6661323458420936e+00 5.1278280915533960e+00 3.6735517589619189e+02
1.7452455457258371e+00 5.3713134844088488e+00 3.6237033139981190e+02
1.8243587456095804e+00 5.6147988772643007e+00 3.5746462799895750e+02
1.9034719454933238e+00 5.8582842701197526e+00 3.5275937499996502e+02
1.9825851453770673e+00 6.1017696629752054e+00 3.4802883763823104e+02
2.0616983452608104e+00 6.3452550558306573e+00 3.4337280823347510e+02
2.1408115451445537e+00 6.5887404486861092e+00 3.3869505870316414e+02
2.2199247450282971e+00 6.8322258415415611e+00 3.3405429639092387e+02
2.2990379449120408e+00 7.0757112343970139e+00 3.2939605806195692e+02
2.3781511447957842e+00 7.3191966272524658e+00 3.2476133354330335e+02
2.4572643446795275e+00 7.5626820201079186e+00 3.2011183609764032e+02
2.5363775445632708e+00 7.8061674129633705e+00 3.1547908097751844e+02
2.6154907444470141e+00 8.0496528058188215e+00 3.1083425434589992e+02
2.6946039443307575e+00 8.2931381986742743e+00 3.0620121360679815e+02
2.7737171442145008e+00 8.5366235915297253e+00 3.0155911376000455e+02
2.8528303440982445e+00 8.7801089843851798e+00 2.9692403798269510e+02
2.9319435439819879e+00 9.0235943772406308e+00 2.9228302335184105e+02
3.0110567438657312e+00 9.2670797700960836e+00 2.8764365000130755e+02
3.0901699437494745e+00 9.5105651629515346e+00 2.8300000000000000e+02
9.7531066337855876e-01 5.1127575460476846e+00 3.7300000000000000e+02
1.0226002677195423e+00 5.3606583334813269e+00 3.6747079353040380e+02
1.0698898720605257e+00 5.6085591209149692e+00 3.6227222926221668e+02
1.1171794764015093e+00 5.8564599083486115e+00 3.5741494946394164e+02
1.1644690807424927e+00 6.1043606957822538e+00 3.5254342323891734e+02
1.2117586850834763e+00 6.3522614832158961e+00 3.4782386849375951e+02
1.2590482894244597e+00 6.6001622706495375e+00 3.4308524041040459e+02
1.3063378937654431e+00 6.8480630580831798e+00 3.3842121731997833e+02
1.3536274981064267e+00 7.0959638455168221e+00 3.3374513784778327e+02
1.4009171024474101e+00 7.3438646329504644e+00 3.2911229956067098e+02
1.4482067067883937e+00 7.5917654203841067e+00 3.2446934987749319e+02
1.4954963111293771e+00 7.8396662078177490e+00 3.1985452160475057e+02
1.5427859154703607e+00 8.0875669952513913e+00 3.1523053042209949e+02
1.5900755198113441e+00 8.3354677826850327e+00 3.1062553086153741e+02
1.6373651241523277e+00 8.5833685701186759e+00 3.0601274677951062e+02
1.6846547284933111e+00 8.8312693575523173e+00 3.0141212842540614e+02
1.7319443328342947e+00 9.0791701449859605e+00 2.9680575394553279e+02
1.7792339371752781e+00 9.3270709324196019e+00 2.9220554352207182e+02
1.8265235415162617e+00 9.5749717198532451e+00 2.8760214205057264e+02
1.8738131458572451e+00 9.8228725072868865e+00 2.8300000000000000e+02
3.2165251038994108e-01 5.1125202505347742e+00 3.7300000000000000e+02
3.3777107275326695e-01 5.3687174628372976e+00 3.6867524782925909e+02
3.5388963511659283e-01 5.6249146751398209e+00 3.6397425195584316e+02
3.7000819747991875e-01 5.8811118874423443e+00 3.5900515885578909e+02
3.8612675984324463e-01 6.1373090997448676e+00 3.5417186684567395e+02
4.0224532220657055e-01 6.3935063120473909e+00 3.4926358989593433e+02
4.1836388456989643e-01 6.6497035243499134e+00 3.4446212583825417e+02
4.3448244693322230e-01 6.9059007366524368e+00 3.3963732797880499e+02
4.5060100929654823e-01 7.1620979489549601e+00 3.3487658611744359e+02
4.6671957165987410e-01 7.4182951612574834e+00 3.3010459616897339e+02
4.8283813402320003e-01 7.6744923735600068e+00 3.2537292375291588e+02
4.9895669638652590e-01 7.9306895858625301e+00 3.2063283755234045e+02
5.1507525874985183e-01 8.1868867981650535e+00 3.1591936775466672e+02
5.3119382111317770e-01 8.4430840104675760e+00 3.1119875538050707e+02
5.4731238347650357e-01 8.6992812227701002e+00 3.0649577207093114e+02
5.6343094583982944e-01 8.9554784350726226e+00 3.0178731583507971e+02
5.7954950820315532e-01 9.2116756473751451e+00 2.9708979213433059e+02
5.9566807056648130e-01 9.4678728596776693e+00 2.9238937667645359e+02
6.1178663292980717e-01 9.7240700719801918e+00 2.8769455677336424e+02
6.2790519529313304e-01 9.9802672842827160e+00 2.8300000000000000e+02
-3.2448696132142246e-01 5.1575725579729328e+00 3.7300000000000000e+02
-3.4045634205677566e-01 5.4113985961997635e+00 3.6813645173113218e+02
-3.5642572279212892e-01 5.6652246344265951e+00 3.6312703097613291e+02
-3.7239510352748212e-01 5.9190506726534249e+00 3.5832963371957135e+02
-3.8836448426283537e-01 6.1728767108802556e+00 3.5342310233077723e+02
-4.0433386499818863e-01 6.4267027491070863e+00 3.4867286199189971e+02
-4.2030324573354189e-01 6.6805287873339170e+00 3.4387029858248940e+02
-4.3627262646889514e-01 6.9343548255607477e+00 3.3915274804749993e+02
-4.5224200720424834e-01 7.1881808637875775e+00 3.3441021799922061e+02
-4.6821138793960165e-01 7.4420069020144091e+00 3.2971750926992183e+02
-4.8418076867495480e-01 7.6958329402412389e+00 3.2500980957875049e+02
-5.0015014941030811e-01 7.9496589784680705e+00 3.2033369166826049e+02
-5.1611953014566136e-01 8.2034850166949003e+00 3.1564684074913112e+02
-5.3208891088101451e-01 8.4573110549217301e+00 3.1098077720771278e+02
-5.4805829161636788e-01 8.7111370931485617e+00 3.0630668045028096e+02
-5.6402767235172102e-01 8.9649631313753932e+00 3.0164586217752725e+02
-5.7999705308707428e-01 9.2187891696022248e+00 2.9697961419312395e+02
-5.9596643382242753e-01 9.4726152078290546e+00 2.9232065362964386e+02
-6.1193581455778068e-01 9.7264412460558844e+00 2.8765920498094550e+02
-6.2790519529313404e-01 9.9802672842827160e+00 2.8300000000000000e+02
-9.7454059014882355e-01 5.1087206808065027e+00 3.7300000000000000e+02
-1.0218707246597933e+00 5.3568339348317862e+00 3.6720345268555428e+02
-1.0692008591707629e+00 5.6049471888570697e+00 3.6222682540892498e+02
-1.1165309936817327e+00 5.8530604428823523e+00 3.5729268042200516e+02
-1.1638611281927025e+00 6.1011736969076358e+00 3.5262722587319178e+02
-1.2111912627036723e+00 6.3492869509329202e+00 3.4787680759366810e+02
-1.2585213972146418e+00 6.5974002049582028e+00 3.4324249992232200e+02
-1.3058515317256114e+00 6.8455134589834854e+00 3.3855650625119961e+02
-1.3531816662365814e+00 7.0936267130087698e+00 3.3392945739417769e+02
-1.4005118007475512e+00 7.3417399670340533e+00 3.2927186166923286e+02
-1.4478419352585208e+00 7.5898532210593359e+00 3.2464861847911357e+02
-1.4951720697694904e+00 7.8379664750846194e+00 3.2000573838782060e+02
-1.5425022042804604e+00 8.0860797291099047e+00 3.1538479138221635e+02
-1.5898323387914299e+00 8.3341929831351873e+00 3.1075037369867886e+02
-1.6371624733023997e+00 8.5823062371604699e+00 3.0613024824138614e+02
-1.6844926078133693e+00 8.8304194911857525e+00 3.0150083228593667e+02
-1.7318227423243389e+00 9.0785327452110351e+00 2.9687972151743071e+02
-1.7791528768353089e+00 9.3266459992363195e+00 2.9225251900516884e+02
-1.8264830113462787e+00 9.5747592532616039e+00 2.8762794519546884e+02
-1.8738131458572482e+00 9.8228725072868865e+00 2.8300000000000000e+02
-1.5429114422405057e+00 4.7485931451029284e+00 3.7300000000000000e+02
-1.6243461002146620e+00 4.9992232513054873e+00 3.6888110695070219e+02
-1.7057807581888182e+00 5.2498533575080453e+00 3.6423545000226892e+02
-1.7872154161629747e+00 5.5004834637106033e+00 3.5968949080358954e+02
-1.8686500741371308e+00 5.7511135699131612e+00 3.5489175152430920e+02
-1.9500847321112873e+00 6.0017436761157201e+00 3.5020882708468241e+02
-2.0315193900854438e+00 6.2523737823182790e+00 3.4540598751192289e+02
-2.1129540480595996e+00 6.5030038885208361e+00 3.4066271096285396e+02
-2.1943887060337559e+00 6.7536339947233941e+00 3.3585523773951201e+02
-2.2758233640079122e+00 7.0042641009259530e+00 3.3108088117478115e+02
-2.3572580219820689e+00 7.2548942071285110e+00 3.2626929163517707e+02
-2.4386926799562252e+00 7.5055243133310690e+00 3.2147842430031960e+02
-2.5201273379303819e+00 7.7561544195336287e+00 3.1666448378535642e+02
-2.6015619959045377e+00 8.0067845257361849e+00 3.1186457332718618e+02
-2.6829966538786940e+00 8.2574146319387438e+00 3.0704997585295411e+02
-2.7644313118528503e+00 8.5080447381413027e+00 3.0224486515976548e+02
-2.8458659698270061e+00 8.7586748443438598e+00 2.9743106214729681e+02
-2.9273006278011628e+00 9.0093049505464187e+00 2.9262294922912503e+02
-3.0087352857753191e+00 9.2599350567489775e+00 2.8781091876298115e+02
-3.0901699437494754e+00 9.5105651629515346e+00 2.8300000000000000e+02
-2.0465560589195957e+00 4.3491530076344258e+00 3.7300000000000000e+02
-2.1629369461159711e+00 4.5964749822147297e+00 3.6997919043106918e+02
-2.2793178333123465e+00 4.8437969567950327e+00 3.6610268001353995e+02
-2.3956987205087219e+00 5.0911189313753367e+00 3.6153721862581074e+02
-2.5120796077050973e+00 5.3384409059556406e+00 3.5700016517173668e+02
-2.6284604949014723e+00 5.5857628805359436e+00 3.5219058987620230e+02
-2.7448413820978477e+00 5.8330848551162475e+00 3.4741618864787978e+02
-2.8612222692942231e+00 6.0804068296965514e+00 3.4251249556022424e+02
-2.9776031564905985e+00 6.3277288042768545e+00 3.3763356610934568e+02
-3.0939840436869739e+00 6.5750507788571584e+00 3.3268703090529294e+02
-3.2103649308833493e+00 6.8223727534374623e+00 3.2775765387770832e+02
-3.3267458180797242e+00 7.0696947280177653e+00 3.2279008100707739e+02
-3.4431267052760997e+00 7.3170167025980692e+00 3.1783505111986284e+02
-3.5595075924724751e+00 7.5643386771783732e+00 3.1285722410142154e+02
-3.6758884796688505e+00 7.8116606517586762e+00 3.0788879740796199e+02
-3.7922693668652259e+00 8.0589826263389810e+00 3.0290691529072558e+02
-3.9086502540616013e+00 8.3063046009192831e+00 2.9793181639557815e+02
-4.0250311412579762e+00 8.5536265754995870e+00 2.9295037804129385e+02
-4.1414120284543516e+00 8.8009485500798910e+00 2.8797418063074264e+02
-4.2577929156507270e+00 9.0482705246601949e+00 2.8300000000000000e+02
-2.6655172397569205e+00 4.2001830862565104e+00 3.7300000000000000e+02
-2.8072409613376075e+00 4.4235039372440710e+00 3.6829455531910077e+02
-2.9489646829182936e+00 4.6468247882316298e+00 3.6364810165165005e+02
-3.0906884044989806e+00 4.8701456392191904e+00 3.5932628733696782e+02
-3.2324121260796672e+00 5.0934664902067501e+00 3.5467432950093109e+02
-3.3741358476603542e+00 5.3167873411943098e+00 3.5010205520098970e+02
-3.5158595692410408e+00 5.5401081921818705e+00 3.4536136563962617e+02
-3.6575832908217274e+00 5.7634290431694302e+00 3.4066512639957728e+02
-3.7993070124024144e+00 5.9867498941569899e+00 3.3588117198538112e+02
-3.9410307339831014e+00 6.2100707451445505e+00 3.3112477093894199e+02
-4.0827544555637880e+00 6.4333915961321102e+00 3.2632000805395018e+02
-4.2244781771444746e+00 6.6567124471196699e+00 3.2153323191201611e+02
-4.3662018987251621e+00 6.8800332981072305e+00 3.1671809069563494e+02
-4.5079256203058478e+00 7.1033541490947893e+00 3.1191536198444084e+02
-4.6496493418865343e+00 7.3266750000823491e+00 3.0709540182556412e+02
-4.7913730634672218e+00 7.5499958510699106e+00 3.0228395291578767e+02
-4.9330967850479084e+00 7.7733167020574694e+00 2.9746239842314907e+02
-5.0748205066285959e+00 7.9966375530450309e+00 2.9264558448532671e+02
-5.2165442282092824e+00 8.2199584040325906e+00 2.8782307363927305e+02
-5.3582679497899690e+00 8.4432792550201494e+00 2.8300000000000000e+02
-3.2102532387731122e+00 3.8805295579066104e+00 3.7300000000000000e+02
-3.3767788523896272e+00 4.0818244457935196e+00 3.6826643218386459e+02
-3.5433044660061421e+00 4.2831193336804292e+00 3.6393329206083342e+02
-3.7098300796226571e+00 4.4844142215673388e+00 3.5909583712369152e+02
-3.8763556932391721e+00 4.6857091094542485e+00 3.5446213972210273e+02
-4.0428813068556870e+00 4.8870039973411581e+00 3.4965510623502382e+02
-4.2094069204722020e+00 5.0882988852280677e+00 3.4495568025025881e+02
-4.3759325340887170e+00 5.2895937731149774e+00 3.4016580220704083e+02
-4.5424581477052319e+00 5.4908886610018870e+00 3.3543558531754860e+02
-4.7089837613217469e+00 5.6921835488887966e+00 3.3065467285647003e+02
-4.8755093749382628e+00 5.8934784367757063e+00 3.2590806697834216e+02
-5.0420349885547777e+00 6.0947733246626159e+00 3.2113159126395766e+02
-5.2085606021712927e+00 6.2960682125495255e+00 3.1637605798887881e+02
-5.3750862157878077e+00 6.4973631004364352e+00 3.1160199356619825e+02
-5.5416118294043226e+00 6.6986579883233448e+00 3.0684126935555099e+02
-5.7081374430208376e+00 6.8999528762102544e+00 3.0206899240943898e+02
-5.8746630566373526e+00 7.1012477640971641e+00 2.9730492311929385e+02
-6.0411886702538675e+00 7.3025426519840737e+00 2.9253459108642323e+02
-6.2077142838703825e+00 7.5038375398709833e+00 2.8776854944534227e+02
-6.3742398974868975e+00 7.7051324277578921e+00 2.8300000000000000e+02
-3.7311540828211358e+00 3.5037869026051816e+00 3.7300000000000000e+02
-3.9184452507891874e+00 3.6796650161147446e+00 3.6889518252298348e+02
-4.1057364187572389e+00 3.8555431296243086e+00 3.6359877898396934e+02
-4.2930275867252909e+00 4.0314212431338721e+00 3.5878170416519305e+02
-4.4803187546933421e+00 4.2072993566434347e+00 3.5381465020070357e+02
-4.6676099226613941e+00 4.3831774701529982e+00 3.4906183899331995e+02
-4.8549010906294452e+00 4.5590555836625617e+00 3.4423106576023588e+02
-5.0421922585974972e+00 4.7349336971721252e+00 3.3951234736108648e+02
-5.2294834265655492e+00 4.9108118106816887e+00 3.3474608595229739e+02
-5.4167745945336003e+00 5.0866899241912513e+00 3.3004091156151418e+02
-5.6040657625016523e+00 5.2625680377008148e+00 3.2530690990771774e+02
-5.7913569304697043e+00 5.4384461512103783e+00 3.2060786554177213e+02
-5.9786480984377546e+00 5.6143242647199409e+00 3.1589064832876392e+02
-6.1659392664058066e+00 5.7902023782295053e+00 3.1119447649850184e+02
-6.3532304343738586e+00 5.9660804917390688e+00 3.0648637129110301e+02
-6.5405216023419097e+00 6.1419586052486315e+00 3.0179100566378133e+02
-6.7278127703099617e+00 6.3178367187581950e+00 2.9708810799805718e+02
-6.9151039382780128e+00 6.4937148322677576e+00 2.9239222341615749e+02
-7.1023951062460648e+00 6.6695929457773211e+00 2.8769322775254085e+02
-7.2896862742141169e+00 6.8454710592868846e+00 2.8300000000000000e+02
-4.2702160913909886e+00 3.1024935941683811e+00 3.7300000000000000e+02
-4.4712662941466981e+00 3.2485651167345049e+00 3.6626776350226527e+02
-4.6723164969024085e+00 3.3946366393006286e+00 3.6138370404813770e+02
-4.8733666996581180e+00 3.5407081618667524e+00 3.5639514272450782e+02
-5.0744169024138284e+00 3.6867796844328762e+00 3.5173323826761219e+02
-5.2754671051695370e+00 3.8328512069989999e+00 3.4698142836351855e+02
-5.4765173079252474e+00 3.9789227295651237e+00 3.4238412404943773e+02
-5.6775675106809569e+00 4.1249942521312475e+00 3.3772764468487702e+02
-5.8786177134366664e+00 4.2710657746973713e+00 3.3315619059097878e+02
-6.0796679161923768e+00 4.4171372972634950e+00 3.2854961874557597e+02
-6.2807181189480854e+00 4.5632088198296188e+00 3.2399164625958429e+02
-6.4817683217037949e+00 4.7092803423957426e+00 3.1941266251743997e+02
-6.6828185244595053e+00 4.8553518649618663e+00 3.1486265689993104e+02
-6.8838687272152157e+00 5.0014233875279901e+00 3.1029927572437560e+02
-7.0849189299709243e+00 5.1474949100941130e+00 3.0575358235086856e+02
-7.2859691327266347e+00 5.2935664326602376e+00 3.0119900709367431e+02
-7.4870193354823442e+00 5.4396379552263614e+00 2.9665444909417874e+02
-7.6880695382380528e+00 5.5857094777924843e+00 2.9210390147761217e+02
-7.8891197409937632e+00 5.7317810003586080e+00 2.8755603265914544e+02
-8.0901699437494727e+00 5.8778525229247327e+00 2.8300000000000000e+02
-4.4173203241989070e+00 2.4284423984540240e+00 3.7300000000000000e+02
-4.6460438229483660e+00 2.5541842059573465e+00 3.6952472393653863e+02
-4.8747673216978251e+00 2.6799260134606691e+00 3.6455519892567503e+02
-5.1034908204472842e+00 2.8056678209639911e+00 3.5981875617194515e+02
-5.3322143191967442e+00 2.9314096284673141e+00 3.5486525049958442e+02
-5.5609378179462041e+00 3.0571514359706367e+00 3.5007152631239745e+02
-5.7896613166956632e+00 3.1828932434739592e+00 3.4517644045466852e+02
-6.0183848154451223e+00 3.3086350509772817e+00 3.4038418887019759e+02
-6.2471083141945822e+00 3.4343768584806043e+00 3.3553838306752618e+02
-6.4758318129440413e+00 3.5601186659839268e+00 3.3075463594140018e+02
-6.7045553116935013e+00 3.6858604734872493e+00 3.2594178678525617e+02