variables="x","y","T"
zone t="Temperature" n=1000 e=950 et=quadrilateral f=fepoint
4.8315603007792118e+00 0.0000000000000000e+00 3.7300000000000000e+02
5.1035834428434637e+00 0.0000000000000000e+00 3.7013908711833267e+02
5.3756065849077155e+00 0.0000000000000000e+00 3.6563887425026041e+02
5.6476297269719673e+00 0.0000000000000000e+00 3.6137780781660132e+02
5.9196528690362200e+00 0.0000000000000000e+00 3.5666379448463425e+02
6.1916760111004718e+00 0.0000000000000000e+00 3.5200071622622113e+02
6.4636991531647237e+00 0.0000000000000000e+00 3.4715635705076772e+02
6.7357222952289755e+00 0.0000000000000000e+00 3.4232117380945505e+02
7.0077454372932273e+00 0.0000000000000000e+00 3.3741882160159741e+02
7.2797685793574800e+00 0.0000000000000000e+00 3.3250953397500399e+02
7.5517917214217318e+00 0.0000000000000000e+00 3.2757992494092798e+02
7.8238148634859837e+00 0.0000000000000000e+00 3.2263816250264841e+02
8.0958380055502346e+00 0.0000000000000000e+00 3.1769451218831642e+02
8.3678611476144873e+00 0.0000000000000000e+00 3.1273890749315171e+02
8.6398842896787400e+00 0.0000000000000000e+00 3.0778744335335438e+02
8.9119074317429927e+00 0.0000000000000000e+00 3.0282697785267146e+02
9.1839305738072436e+00 0.0000000000000000e+00 2.9787096943105024e+02
9.4559537158714946e+00 0.0000000000000000e+00 2.9291072111547516e+02
9.7279768579357473e+00 0.0000000000000000e+00 2.8795232193934817e+02
1.0000000000000000e+01 0.0000000000000000e+00 2.8300000000000000e+02
4.7934305093166261e+00 6.0555109686658115e-01 3.7300000000000000e+02
5.0633103253075813e+00 6.3964484627586859e-01 3.6870166086981993e+02
5.3331901412985374e+00 6.7373859568515604e-01 3.6509914772752188e+02
5.6030699572894918e+00 7.0783234509444348e-01 3.6070230702840473e+02
5.8729497732804479e+00 7.4192609450373093e-01 3.5629413325976901e+02
6.1428295892714031e+00 7.7601984391301837e-01 3.5158142563296150e+02
6.4127094052623583e+00 8.1011359332230581e-01 3.4686289623517837e+02
6.6825892212533144e+00 8.4420734273159326e-01 3.4202740365908198e+02
6.9524690372442697e+00 8.7830109214088081e-01 3.3718033123513391e+02
7.2223488532352249e+00 9.1239484155016815e-01 3.3229247976214913e+02
7.4922286692261801e+00 9.4648859095945559e-01 3.2738973037493781e+02
7.7621084852171363e+00 9.8058234036874303e-01 3.2247699182979289e+02
8.0319883012080915e+00 1.0146760897780307e+00 3.1754981591348428e+02
8.3018681171990476e+00 1.0487698391873179e+00 3.1262421180740716e+02
8.5717479331900019e+00 1.0828635885966054e+00 3.0768711222475554e+02
8.8416277491809581e+00 1.1169573380058930e+00 3.0275463832604981e+02
9.1115075651719124e+00 1.1510510874151803e+00 2.9781513490093670e+02
9.3813873811628685e+00 1.1851448368244677e+00 2.9287904855366065e+02
9.6512671971538229e+00 1.2192385862337551e+00 2.8794151707890791e+02
9.9211470131447790e+00 1.2533323356430426e+00 2.8300000000000000e+02
4.7388369169117253e+00 1.2167265191624743e+00 3.7300000000000000e+02
4.9992050587209143e+00 1.2835776956091098e+00 3.6974270641074543e+02
5.2595732005301024e+00 1.3504288720557454e+00 3.6514521066328297e+02
5.5199413423392913e+00 1.4172800485023807e+00 3.6060846342560046e+02
5.7803094841484803e+00 1.4841312249490162e+00 3.5578604289966222e+02
6.0406776259576684e+00 1.5509824013956515e+00 3.5103974803035521e+02
6.3010457677668583e+00 1.6178335778422872e+00 3.4618940352530615e+02
6.5614139095760464e+00 1.6846847542889227e+00 3.4136882583336541e+02
6.8217820513852354e+00 1.7515359307355580e+00 3.3651328887562693e+02
7.0821501931944235e+00 1.8183871071821935e+00 3.3166118948890414e+02
7.3425183350036125e+00 1.8852382836288288e+00 3.2680260881082296e+02
7.6028864768128015e+00 1.9520894600754646e+00 3.2193695479307956e+02
7.8632546186219905e+00 2.0189406365221001e+00 3.1707550822168804e+02
8.1236227604311786e+00 2.0857918129687354e+00 3.1220458662420674e+02
8.3839909022403685e+00 2.1526429894153707e+00 3.0734045677790033e+02
8.6443590440495566e+00 2.2194941658620064e+00 3.0246846351655927e+02
8.9047271858587447e+00 2.2863453423086417e+00 2.9760202310287468e+02
9.1650953276679328e+00 2.3531965187552770e+00 2.9273175085166531e+02
9.4254634694771227e+00 2.4200476952019123e+00 2.8786367708539660e+02
9.6858316112863108e+00 2.4868988716485481e+00 2.8300000000000000e+02
4.8067807618314990e+00 1.9031391357591394e+00 3.7300000000000000e+02
5.0431483458868165e+00 1.9967236826584891e+00 3.6731219463713728e+02
5.2795159299421321e+00 2.0903082295578383e+00 3.6221670375596085e+02
5.5158835139974487e+00 2.1838927764571880e+00 3.5717335360576578e+02
5.7522510980527652e+00 2.2774773233565373e+00 3.5240904843146535e+02
5.9886186821080818e+00 2.3710618702558870e+00 3.4762981364486564e+02
6.2249862661633983e+00 2.4646464171552362e+00 3.4296242301615405e+02
6.4613538502187149e+00 2.5582309640545855e+00 3.3829036348144245e+02
6.6977214342740314e+00 2.6518155109539352e+00 3.3365768655733763e+02
6.9340890183293489e+00 2.7454000578532849e+00 3.2903181932380295e+02
7.1704566023846645e+00 2.8389846047526341e+00 3.2441467371012027e+02
7.4068241864399811e+00 2.9325691516519838e+00 3.1980882305042638e+02
7.6431917704952985e+00 3.0261536985513335e+00 3.1519983162254692e+02
7.8795593545506142e+00 3.1197382454506828e+00 3.1060195227508910e+02
8.1159269386059307e+00 3.2133227923500320e+00 3.0599765485620776e+02
8.3522945226612482e+00 3.3069073392493817e+00 3.0140167127768967e+02
8.5886621067165638e+00 3.4004918861487314e+00 2.9680006582993207e+02
8.8250296907718813e+00 3.4940764330480811e+00 2.9220229954620976e+02
9.0613972748271969e+00 3.5876609799474304e+00 2.8760235057749003e+02
9.2977648588825126e+00 3.6812455268467796e+00 2.8300000000000000e+02
4.5664934968121846e+00 2.5104510440805292e+00 3.7300000000000000e+02
4.7873657759504189e+00 2.6318766070771935e+00 3.6677175694694563e+02
5.0082380550886532e+00 2.7533021700738578e+00 3.6147196427343755e+02
5.2291103342268874e+00 2.8747277330705225e+00 3.5656306260508649e+02
5.4499826133651217e+00 2.9961532960671868e+00 3.5170876653328469e+02
5.6708548925033559e+00 3.1175788590638511e+00 3.4701740519538242e+02
5.8917271716415893e+00 3.2390044220605154e+00 3.4233594600374926e+02
6.1125994507798236e+00 3.3604299850571797e+00 3.3772032504166714e+02
6.3334717299180578e+00 3.4818555480538445e+00 3.3311699827144423e+02
6.5543440090562921e+00 3.6032811110505087e+00 3.2853483911258780e+02
6.7752162881945273e+00 3.7247066740471730e+00 3.2396734476369784e+02
6.9960885673327615e+00 3.8461322370438378e+00 3.1940183845334565e+02
7.2169608464709958e+00 3.9675578000405021e+00 3.1485020186359554e+02
7.4378331256092300e+00 4.0889833630371664e+00 3.1029359232245042e+02
7.6587054047474643e+00 4.2104089260338311e+00 3.0574794835677289e+02
7.8795776838856986e+00 4.3318344890304958e+00 3.0119620788884339e+02
8.1004499630239337e+00 4.4532600520271597e+00 2.9665110771905290e+02
8.3213222421621680e+00 4.5746856150238244e+00 2.9210152775858114e+02
8.5421945213004022e+00 4.6961111780204892e+00 2.8755215703132109e+02
8.7630668004386365e+00 4.8175367410171530e+00 2.8300000000000000e+02
3.9821293239309492e+00 2.8931863058530705e+00 3.7300000000000000e+02
4.1983419881319239e+00 3.0502740014884209e+00 3.6954061135092860e+02
4.4145546523328987e+00 3.2073616971237713e+00 3.6484116229611197e+02
4.6307673165338743e+00 3.3644493927591226e+00 3.5997701563300598e+02
4.8469799807348490e+00 3.5215370883944730e+00 3.5514733551389622e+02
5.0631926449358238e+00 3.6786247840298234e+00 3.5027601194854702e+02
5.2794053091367994e+00 3.8357124796651743e+00 3.4545347563582260e+02
5.4956179733377741e+00 3.9928001753005247e+00 3.4062339829042310e+02
5.7118306375387498e+00 4.1498878709358751e+00 3.3581041690159225e+02
5.9280433017397245e+00 4.3069755665712259e+00 3.3100310278288890e+02
6.1442559659406992e+00 4.4640632622065759e+00 3.2619489361653115e+02
6.3604686301416749e+00 4.6211509578419268e+00 3.2139670313732069e+02
6.5766812943426487e+00 4.7782386534772767e+00 3.1659074599802994e+02
6.7928939585436243e+00 4.9353263491126276e+00 3.1179483344078096e+02
7.0091066227445999e+00 5.0924140447479784e+00 3.0699035559746784e+02
7.2253192869455756e+00 5.2495017403833293e+00 3.0219381204821491e+02
7.4415319511465494e+00 5.4065894360186793e+00 2.9739123363680983e+02
7.6577446153475233e+00 5.5636771316540292e+00 2.9259350782803779e+02
7.8739572795484989e+00 5.7207648272893801e+00 2.8779519081894392e+02
8.0901699437494745e+00 5.8778525229247318e+00 2.8300000000000000e+02
3.5224212197636069e+00 3.3077736971759206e+00 3.7300000000000000e+02
3.7206983278925807e+00 3.4939682951817606e+00 3.6864241453311632e+02
3.9189754360215554e+00 3.6801628931876014e+00 3.6444997070871523e+02
4.1172525441505297e+00 3.8663574911934417e+00 3.5995710690190441e+02
4.3155296522795030e+00 4.0525520891992821e+00 3.5533434940193865e+02
4.5138067604084782e+00 4.2387466872051229e+00 3.5065998806396669e+02
4.7120838685374515e+00 4.4249412852109629e+00 3.4591857039950270e+02
4.9103609766664258e+00 4.6111358832168028e+00 3.4115094810532111e+02
5.1086380847954000e+00 4.7973304812226436e+00 3.3635676930871085e+02
5.3069151929243743e+00 4.9835250792284835e+00 3.3153994797079775e+02
5.5051923010533477e+00 5.1697196772343244e+00 3.2671663822902821e+02
5.7034694091823228e+00 5.3559142752401652e+00 3.2187327709618154e+02
5.9017465173112971e+00 5.5421088732460060e+00 3.1703199014031969e+02
6.1000236254402704e+00 5.7283034712518450e+00 3.1217446314242022e+02
6.2983007335692456e+00 5.9144980692576858e+00 3.0732157645377924e+02
6.4965778416982198e+00 6.1006926672635267e+00 3.0245720166076205e+02
6.6948549498271932e+00 6.2868872652693666e+00 2.9759685858603979e+02
6.8931320579561666e+00 6.4730818632752056e+00 2.9273052269374512e+02
7.0914091660851426e+00 6.6592764612810473e+00 2.8786563632453363e+02
7.2896862742141160e+00 6.8454710592868873e+00 2.8300000000000000e+02
3.0592359989045623e+00 3.6979810735735348e+00 3.7300000000000000e+02
3.2337098883036326e+00 3.9088837764253435e+00 3.6834938074092969e+02
3.4081837777027029e+00 4.1197864792771517e+00 3.6388700378990649e+02
3.5826576671017731e+00 4.3306891821289604e+00 3.5957517919733772e+02
3.7571315565008434e+00 4.5415918849807682e+00 3.5512370539622083e+02
3.9316054458999137e+00 4.7524945878325768e+00 3.5056971923765445e+02
4.1060793352989835e+00 4.9633972906843846e+00 3.4592790138451983e+02
4.2805532246980533e+00 5.1742999935361924e+00 3.4122388968148681e+02
4.4550271140971240e+00 5.3852026963880011e+00 3.3646509495592397e+02
4.6295010034961939e+00 5.5961053992398098e+00 3.3167907540351780e+02
4.8039748928952646e+00 5.8070081020916176e+00 3.2685567279166304e+02
4.9784487822943344e+00 6.0179108049434253e+00 3.2202354605845244e+02
5.1529226716934042e+00 6.2288135077952340e+00 3.1716499711791789e+02
5.3273965610924749e+00 6.4397162106470427e+00 3.1230601610372361e+02
5.5018704504915448e+00 6.6506189134988505e+00 3.0742891298844216e+02
5.6763443398906155e+00 6.8615216163506592e+00 3.0255401121433357e+02
5.8508182292896853e+00 7.0724243192024678e+00 2.9766795252250637e+02
6.0252921186887560e+00 7.2833270220542756e+00 2.9278310973532888e+02
6.1997660080878259e+00 7.4942297249060843e+00 2.8789279688097446e+02
6.3742398974868966e+00 7.7051324277578921e+00 2.8300000000000000e+02
2.4737097017154688e+00 3.8979427686618409e+00 3.7300000000000000e+02
2.6255285568772844e+00 4.1371710047859622e+00 3.7005357088079177e+02
2.7773474120391000e+00 4.3763992409100840e+00 3.6639977264175758e+02
2.9291662672009156e+00 4.6156274770342058e+00 3.6212204055999410e+02
3.0809851223627316e+00 4.8548557131583276e+00 3.5764888502985445e+02
3.2328039775245472e+00 5.0940839492824486e+00 3.5297089560841766e+02
3.3846228326863623e+00 5.3333121854065695e+00 3.4819720232384140e+02
3.5364416878481779e+00 5.5725404215306913e+00 3.4332738343781415e+02
3.6882605430099935e+00 5.8117686576548131e+00 3.3841429185019985e+02
3.8400793981718091e+00 6.0509968937789349e+00 3.3344570278699945e+02
3.9918982533336247e+00 6.2902251299030558e+00 3.2846041881977396e+02
4.1437171084954407e+00 6.5294533660271776e+00 3.2343917419659425e+02
4.2955359636572563e+00 6.7686816021512994e+00 3.1841393332880364e+02
4.4473548188190719e+00 7.0079098382754212e+00 3.1336473005781517e+02
4.5991736739808875e+00 7.2471380743995431e+00 3.0831686420842357e+02
4.7509925291427031e+00 7.4863663105236640e+00 3.0325402805833016e+02
4.9028113843045187e+00 7.7255945466477858e+00 2.9819401263326125e+02
5.0546302394663343e+00 7.9648227827719076e+00 2.9312709843234052e+02
5.2064490946281499e+00 8.2040510188960294e+00 2.8806293337096815e+02
5.3582679497899655e+00 8.4432792550201512e+00 2.8300000000000000e+02
2.0304103567130807e+00 4.3148416439139998e+00 3.7300000000000000e+02
2.1476410177097986e+00 4.5639694797427461e+00 3.6999484325065674e+02
2.2648716787065171e+00 4.8130973155714933e+00 3.6579350817895323e+02
2.3821023397032355e+00 5.0622251514002414e+00 3.6134053998862532e+02
2.4993330006999535e+00 5.3113529872289886e+00 3.5662165253998620e+02
2.6165636616966719e+00 5.5604808230577358e+00 3.5187243558129632e+02
2.7337943226933898e+00 5.8096086588864821e+00 3.4703350187030935e+02
2.8510249836901083e+00 6.0587364947152293e+00 3.4218729204831317e+02
2.9682556446868267e+00 6.3078643305439774e+00 3.3729422211536269e+02
3.0854863056835442e+00 6.5569921663727238e+00 3.3240192686271405e+02
3.2027169666802631e+00 6.8061200022014718e+00 3.2747875557737478e+02
3.3199476276769810e+00 7.0552478380302182e+00 3.2256068104271958e+02
3.4371782886736990e+00 7.3043756738589654e+00 3.1762068324136129e+02
3.5544089496704179e+00 7.5535035096877134e+00 3.1268720262790299e+02
3.6716396106671354e+00 7.8026313455164598e+00 3.0773857493990300e+02
3.7888702716638538e+00 8.0517591813452078e+00 3.0279591376257576e+02
3.9061009326605718e+00 8.3008870171739542e+00 2.9784429696099153e+02
4.0233315936572902e+00 8.5500148530027023e+00 2.9289694956834012e+02
4.1405622546540091e+00 8.7991426888314503e+00 2.8794697436234253e+02
4.2577929156507270e+00 9.0482705246601967e+00 2.8300000000000000e+02
1.5870149408314040e+00 4.8843297566479702e+00 3.7300000000000000e+02
1.6661283620376182e+00 5.1278158306639465e+00 3.6735524296814782e+02
1.7452417832438325e+00 5.3713019046799246e+00 3.6237044736760299e+02
1.8243552044500466e+00 5.6147879786959010e+00 3.5746474973574254e+02
1.9034686256562610e+00 5.8582740527118791e+00 3.5275951090750397e+02
1.9825820468624751e+00 6.1017601267278554e+00 3.4802896363227427e+02
2.0616954680686894e+00 6.3452462007438335e+00 3.4337293663893138e+02
2.1408088892749038e+00 6.5887322747598098e+00 3.3869517345989846e+02
2.2199223104811177e+00 6.8322183487757870e+00 3.3405440895645040e+02
2.2990357316873320e+00 7.0757044227917643e+00 3.2939615606475547e+02
2.3781491528935468e+00 7.3191904968077424e+00 3.2476142714868303e+02
2.4572625740997607e+00 7.5626765708237187e+00 3.2011191522049052e+02
2.5363759953059750e+00 7.8061626448396959e+00 3.1547915431109737e+02
2.6154894165121894e+00 8.0496487188556731e+00 3.1083431374712711e+02
2.6946028377184037e+00 8.2931347928716512e+00 3.0620126611729478e+02
2.7737162589246176e+00 8.5366208668876258e+00 3.0155915317676016e+02
2.8528296801308319e+00 8.7801069409036039e+00 2.9692406953916850e+02
2.9319431013370458e+00 9.0235930149195802e+00 2.9228304287012367e+02
3.0110565225432602e+00 9.2670790889355583e+00 2.8764366085737430e+02
3.0901699437494745e+00 9.5105651629515346e+00 2.8300000000000000e+02
9.7531019362266225e-01 5.1127550835010371e+00 3.7300000000000000e+02
1.0225998226876403e+00 5.3606560005423978e+00 3.6747080800186023e+02
1.0698894517526185e+00 5.6085569175837584e+00 3.6227223213184590e+02
1.1171790808175963e+00 5.8564578346251182e+00 3.5741496650228441e+02
1.1644687098825743e+00 6.1043587516664788e+00 3.5254342434328754e+02
1.2117583389475526e+00 6.3522596687078394e+00 3.4782387912341477e+02
1.2590479680125306e+00 6.6001605857492001e+00 3.4308524007103097e+02
1.3063375970775086e+00 6.8480615027905607e+00 3.3842122404012986e+02
1.3536272261424867e+00 7.0959624198319204e+00 3.3374513681614394e+02
1.4009168552074647e+00 7.3438633368732820e+00 3.2911230420902621e+02
1.4482064842724427e+00 7.5917642539146417e+00 3.2446934863378885e+02
1.4954961133374207e+00 7.8396651709560023e+00 3.1985452501165929e+02
1.5427857424023987e+00 8.0875660879973630e+00 3.1523052920948783e+02
1.5900753714673768e+00 8.3354670050387227e+00 3.1062553335393574e+02
1.6373650005323550e+00 8.5833679220800843e+00 3.0601274571973886e+02
1.6846546295973328e+00 8.8312688391214440e+00 3.0141213011630856e+02
1.7319442586623111e+00 9.0791697561628055e+00 2.9680575310474984e+02
1.7792338877272891e+00 9.3270706732041653e+00 2.9220554445921783e+02
1.8265235167922669e+00 9.5749715902455250e+00 2.8760214138269220e+02
1.8738131458572451e+00 9.8228725072868865e+00 2.8300000000000000e+02
3.2165333863000584e-01 5.1125334150336252e+00 3.7300000000000000e+02
3.3777185740174936e-01 5.3687299344677877e+00 3.6867512485251808e+02
3.5389037617349289e-01 5.6249264539019510e+00 3.6397408987314969e+02
3.7000889494523642e-01 5.8811229733361126e+00 3.5900495422061795e+02
3.8612741371697995e-01 6.1373194927702750e+00 3.5417167637939070e+02
4.0224593248872348e-01 6.3935160122044383e+00 3.4926338978718820e+02
4.1836445126046706e-01 6.6497125316386008e+00 3.4446194667421400e+02
4.3448297003221059e-01 6.9059090510727641e+00 3.3963715102856480e+02
4.5060148880395412e-01 7.1621055705069265e+00 3.3487643024614897e+02
4.6672000757569770e-01 7.4183020899410890e+00 3.3010444732187926e+02
4.8283852634744118e-01 7.6744986093752514e+00 3.2537279512968144e+02
4.9895704511918471e-01 7.9306951288094139e+00 3.2063271826826525e+02
5.1507556389092823e-01 8.1868916482435754e+00 3.1591926770429131e+02
5.3119408266267176e-01 8.4430881676777396e+00 3.1119866606295631e+02
5.4731260143441529e-01 8.6992846871119021e+00 3.0649570095241904e+02
5.6343112020615882e-01 8.9554812065460645e+00 3.0178725649219979e+02
5.7954963897790235e-01 9.2116777259802269e+00 2.9708974988371199e+02
5.9566815774964599e-01 9.4678742454143894e+00 2.9238934706476437e+02
6.1178667652138952e-01 9.7240707648485536e+00 2.8769454317152884e+02
6.2790519529313304e-01 9.9802672842827160e+00 2.8300000000000000e+02
-3.2448734784479583e-01 5.1575787015860239e+00 3.7300000000000000e+02
-3.4045670823681362e-01 5.4114044164647970e+00 3.6813637638152255e+02
-3.5642606862883142e-01 5.6652301313435709e+00 3.6312690797348694e+02
-3.7239542902084921e-01 5.9190558462223439e+00 3.5832953211112766e+02
-3.8836478941286701e-01 6.1728815611011170e+00 3.5342297967079975e+02
-4.0433414980488486e-01 6.4267072759798909e+00 3.4867276123555155e+02
-4.2030351019690260e-01 6.6805329908586639e+00 3.4387019043606966e+02
-4.3627287058892039e-01 6.9343587057374370e+00 3.3915265794119387e+02
-4.5224223098093819e-01 7.1881844206162100e+00 3.3441012660769837e+02
-4.6821159137295604e-01 7.4420101354949839e+00 3.2971743318135964e+02
-4.8418095176497383e-01 7.6958358503737561e+00 3.2500973515251633e+02
-5.0015031215699168e-01 7.9496615652525300e+00 3.2033363073509980e+02
-5.1611967254900948e-01 8.2034872801313039e+00 3.1564678315240553e+02
-5.3208903294102716e-01 8.4573129950100761e+00 3.1098073176163859e+02
-5.4805839333304496e-01 8.7111387098888500e+00 3.0630663951977419e+02
-5.6402775372506275e-01 8.9649644247676221e+00 3.0164583223359335e+02
-5.7999711411708055e-01 9.2187901396463943e+00 2.9697958974546208e+02
-5.9596647450909845e-01 9.4726158545251700e+00 2.9232063903954986e+02
-6.1193583490111625e-01 9.7264415694039421e+00 2.8765919658697936e+02
-6.2790519529313404e-01 9.9802672842827160e+00 2.8300000000000000e+02
-9.7453779628950998e-01 5.1087060348830811e+00 3.7300000000000000e+02
-1.0218680778457068e+00 5.3568200597464388e+00 3.6720353785056966e+02
-1.0691983594019034e+00 5.6049340846097975e+00 3.6222698504301212e+02
-1.1165286409581001e+00 5.8530481094731552e+00 3.5729282168576259e+02
-1.1638589225142970e+00 6.1011621343365148e+00 3.5262739650935083e+02
-1.2111892040704937e+00 6.3492761591998725e+00 3.4787695472761760e+02
-1.2585194856266904e+00 6.5973901840632303e+00 3.4324265580134312e+02
-1.3058497671828873e+00 6.8455042089265890e+00 3.3855664106507737e+02
-1.3531800487390839e+00 7.0936182337899467e+00 3.3392959189463335e+02
-1.4005103302952806e+00 7.3417322586533045e+00 3.2927197728026158e+02
-1.4478406118514775e+00 7.5898462835166631e+00 3.2464872942925155e+02
-1.4951708934076742e+00 7.8379603083800209e+00 3.2000583195815591e+02
-1.5425011749638708e+00 8.0860743332433795e+00 3.1538487793199658e+02
-1.5898314565200677e+00 8.3341883581067382e+00 3.1075044402785392e+02
-1.6371617380762642e+00 8.5823023829700951e+00 3.0613031004764048e+02
-1.6844920196324611e+00 8.8304164078334537e+00 3.0150087894138977e+02
-1.7318223011886580e+00 9.0785304326968124e+00 2.9687975855405136e+02
-1.7791525827448544e+00 9.3266444575601692e+00 2.9225254200136777e+02
-1.8264828643010518e+00 9.5747584824235297e+00 2.8762795787619262e+02
-1.8738131458572482e+00 9.8228725072868865e+00 2.8300000000000000e+02
-1.5429057931800036e+00 4.7485757590824216e+00 3.7300000000000000e+02
-1.6243407484731336e+00 4.9992067803386897e+00 3.6888124663752808e+02
-1.7057757037662640e+00 5.2498378015949596e+00 3.6423559280482704e+02
-1.7872106590593939e+00 5.5004688228512286e+00 3.5968969609164685e+02
-1.8686456143525243e+00 5.7510998441074985e+00 3.5489193304362391e+02
-1.9500805696456542e+00 6.0017308653637675e+00 3.5020903022994685e+02
-2.0315155249387842e+00 6.2523618866200357e+00 3.4540616633388510e+02
-2.1129504802319143e+00 6.5029929078763056e+00 3.4066289346777063e+02
-2.1943854355250445e+00 6.7536239291325746e+00 3.3585539760724794e+02
-2.2758203908181747e+00 7.0042549503888436e+00 3.3108103645335109e+02
-2.3572553461113048e+00 7.2548859716451135e+00 3.2626942572247685e+02
-2.4386903014044350e+00 7.5055169929013816e+00 3.2147854968132458e+02
-2.5201252566975647e+00 7.7561480141576506e+00 3.1666458908335204e+02
-2.6015602119906949e+00 8.0067790354139206e+00 3.1186466762483644e+02
-2.6829951672838246e+00 8.2574100566701887e+00 3.0705005104649723e+02
-2.7644301225769552e+00 8.5080410779264586e+00 3.0224492787089662e+02
-2.8458650778700854e+00 8.7586720991827285e+00 2.9743110675968086e+02
-2.9273000331632151e+00 9.0093031204389966e+00 2.9262298032463383e+02
-3.0087349884563457e+00 9.2599341416952665e+00 2.8781093280761939e+02
-3.0901699437494754e+00 9.5105651629515346e+00 2.8300000000000000e+02
-2.0465632133700220e+00 4.3491682116155008e+00 3.7300000000000000e+02
-2.1629437240163747e+00 4.5964893859862741e+00 3.6997896156955090e+02
-2.2793242346627278e+00 4.8438105603570483e+00 3.6610246831539007e+02
-2.3957047453090810e+00 5.0911317347278215e+00 3.6153694812997753e+02
-2.5120852559554336e+00 5.3384529090985939e+00 3.5699993402473973e+02
-2.6284657666017868e+00 5.5857740834693681e+00 3.5219034375460541e+02
-2.7448462772481395e+00 5.8330952578401414e+00 3.4741597633915183e+02
-2.8612267878944921e+00 6.0804164322109147e+00 3.4251228419001308e+02
-2.9776072985408453e+00 6.3277376065816879e+00 3.3763338297508085e+02
-3.0939878091871984e+00 6.5750587809524612e+00 3.3268685556465300e+02
-3.2103683198335511e+00 6.8223799553232345e+00 3.2775750324278920e+02
-3.3267488304799042e+00 7.0697011296940087e+00 3.2278994148156704e+02
-3.4431293411262565e+00 7.3170223040647810e+00 3.1783493413690917e+02
-3.5595098517726096e+00 7.5643434784355543e+00 3.1285712007782286e+02
-3.6758903624189627e+00 7.8116646528063285e+00 3.0788871443166016e+02
-3.7922708730653159e+00 8.0589858271771018e+00 3.0290684651676077e+02
-3.9086513837116685e+00 8.3063070015478750e+00 2.9793176742196863e+02
-4.0250318943580208e+00 8.5536281759186465e+00 2.9295034416995014e+02
-4.1414124050043739e+00 8.8009493502894216e+00 2.8797416536494319e+02
-4.2577929156507270e+00 9.0482705246601949e+00 2.8300000000000000e+02
-2.6655206902443029e+00 4.2001885233546190e+00 3.7300000000000000e+02
-2.8072442302203906e+00 4.4235090881791210e+00 3.6829461515776944e+02
-2.9489677701964783e+00 4.6468296530036222e+00 3.6364803923938803e+02
-3.0906913101725659e+00 4.8701502178281242e+00 3.5932625301982222e+02
-3.2324148501486536e+00 5.0934707826526262e+00 3.5467424520067158e+02
-3.3741383901247413e+00 5.3167913474771273e+00 3.5010199416781768e+02
-3.5158619301008285e+00 5.5401119123016285e+00 3.4536128347506894e+02
-3.6575854700769166e+00 5.7634324771261305e+00 3.4066506235663320e+02
-3.7993090100530043e+00 5.9867530419506316e+00 3.3588109953022285e+02
-3.9410325500290919e+00 6.2100736067751336e+00 3.3112471293720341e+02
-4.0827560900051800e+00 6.4333941715996357e+00 3.2631994767923396e+02
-4.2244796299812668e+00 6.6567147364241359e+00 3.2153318371166540e+02
-4.3662031699573545e+00 6.8800353012486379e+00 3.1671804323208920e+02
-4.5079267099334421e+00 7.1033558660731400e+00 3.1191532519643090e+02
-4.6496502499095298e+00 7.3266764308976411e+00 3.0709536759568749e+02
-4.7913737898856175e+00 7.5499969957221431e+00 3.0228392817533188e+02
-4.9330973298617060e+00 7.7733175605466442e+00 2.9746237748033832e+02
-5.0748208698377937e+00 7.9966381253711463e+00 2.9264557195176241e+02
-5.2165444098138813e+00 8.2199586901956483e+00 2.8782306577945673e+02
-5.3582679497899690e+00 8.4432792550201494e+00 2.8300000000000000e+02
-3.2102583407929357e+00 3.8805357251891444e+00 3.7300000000000000e+02
-3.3767836858820917e+00 4.0818302884822364e+00 3.6826628036628301e+02
-3.5433090309712472e+00 4.2831248517753284e+00 3.6393322977258293e+02
-3.7098343760604031e+00 4.4844194150684205e+00 3.5909571909578943e+02
-3.8763597211495591e+00 4.6857139783615125e+00 3.5446206341781721e+02
-4.0428850662387150e+00 4.8870085416546045e+00 3.4965500301773744e+02
-4.2094104113278705e+00 5.0883031049476966e+00 3.4495560261378745e+02
-4.3759357564170269e+00 5.2895976682407886e+00 3.4016571247633783e+02
-4.5424611015061824e+00 5.4908922315338806e+00 3.3543551365806439e+02
-4.7089864465953388e+00 5.6921867948269727e+00 3.3065459703048964e+02
-4.8755117916844943e+00 5.8934813581200638e+00 3.2590800548441314e+02
-5.0420371367736507e+00 6.0947759214131567e+00 3.2113152989815080e+02
-5.2085624818628062e+00 6.2960704847062479e+00 3.1637600896645836e+02
-5.3750878269519626e+00 6.4973650479993408e+00 3.1160194715884563e+02
-5.5416131720411190e+00 6.6986596112924337e+00 3.0684123403469226e+02
-5.7081385171302736e+00 6.8999541745855248e+00 3.0206896135436784e+02
-5.8746638622194292e+00 7.1012487378786160e+00 2.9730490216625145e+02
-6.0411892073085856e+00 7.3025433011717089e+00 2.9253457566127582e+02
-6.2077145523977419e+00 7.5038378644648009e+00 2.8776854334233371e+02
-6.3742398974868975e+00 7.7051324277578921e+00 2.8300000000000000e+02
-3.7311476248172006e+00 3.5037808381358237e+00 3.7300000000000000e+02
-3.9184391326801964e+00 3.6796592708279849e+00 3.6889538564863244e+02
-4.1057306405431921e+00 3.8555377035201461e+00 3.6359889505375924e+02
-4.2930221484061875e+00 4.0314161362123073e+00 3.5878187659428301e+02
-4.4803136562691828e+00 4.2072945689044685e+00 3.5381477344831012e+02
-4.6676051641321790e+00 4.3831730015966297e+00 3.4906198341480979e+02
-4.8548966719951734e+00 4.5590514342887900e+00 3.4423117709832451e+02
-5.0421881798581696e+00 4.7349298669809512e+00 3.3951246549701665e+02
-5.2294796877211649e+00 4.9108082996731124e+00 3.3474618050511759e+02
-5.4167711955841602e+00 5.0866867323652736e+00 3.3004100629818419e+02
-5.6040627034471564e+00 5.2625651650574348e+00 3.2530698654343047e+02
-5.7913542113101517e+00 5.4384435977495960e+00 3.2060793919195243e+02
-5.9786457191731470e+00 5.6143220304417571e+00 3.1589070706210856e+02
-6.1659372270361432e+00 5.7902004631339183e+00 3.1119453056611070e+02
-6.3532287348991385e+00 5.9660788958260795e+00 3.0648641246256881e+02
-6.5405202427621338e+00 6.1419573285182407e+00 3.0179104106386961e+02
-6.7278117506251300e+00 6.3178357612104019e+00 2.9708813197050074e+02
-6.9151032584881253e+00 6.4937141939025631e+00 2.9239224072202592e+02
-7.1023947663511207e+00 6.6695926265947243e+00 2.8769323473237404e+02
-7.2896862742141169e+00 6.8454710592868846e+00 2.8300000000000000e+02
-4.2702203807556227e+00 3.1024967105742056e+00 3.7300000000000000e+02
-4.4712703577552997e+00 3.2485680691189707e+00 3.6626762139083786e+02
-4.6723203347549758e+00 3.3946394276637348e+00 3.6138366195789854e+02
-4.8733703117546519e+00 3.5407107862084994e+00 3.5639504754927896e+02
-5.0744202887543279e+00 3.6867821447532640e+00 3.5173318931771803e+02
-5.2754702657540049e+00 3.8328535032980287e+00 3.4698135221009898e+02
-5.4765202427536810e+00 3.9789248618427933e+00 3.4238407467953243e+02
-5.6775702197533571e+00 4.1249962203875574e+00 3.3772758154512837e+02
-5.8786201967530340e+00 4.2710675789323229e+00 3.3315614481312400e+02
-6.0796701737527101e+00 4.4171389374770866e+00 3.2854956662863572e+02
-6.2807201507523862e+00 4.5632102960218512e+00 3.2399160677454375e+02
-6.4817701277520632e+00 4.7092816545666167e+00 3.1941262079720184e+02
-6.6828201047517384e+00 4.8553530131113805e+00 3.1486262534757952e+02
-6.8838700817514153e+00 5.0014243716561451e+00 3.1029924433611296e+02
-7.0849200587510914e+00 5.1474957302009097e+00 3.0575355965878737e+02
-7.2859700357507684e+00 5.2935670887456743e+00 3.0119898616923933e+02
-7.4870200127504445e+00 5.4396384472904389e+00 2.9665443578341814e+02
-7.6880699897501197e+00 5.5857098058352026e+00 2.9210389116164055e+02
-7.8891199667497984e+00 5.7317811643799690e+00 2.8755602910385204e+02
-8.0901699437494727e+00 5.8778525229247327e+00 2.8300000000000000e+02
-4.4173205203308310e+00 2.4284425062784618e+00 3.7300000000000000e+02
-4.6460440087575572e+00 2.5541843081068141e+00 3.6952484595340036e+02
-4.8747674971842834e+00 2.6799261099351659e+00 3.6455519979680173e+02
-5.1034909856110104e+00 2.8056679117635182e+00 3.5981880015142104e+02
-5.3322144740377375e+00 2.9314097135918704e+00 3.5486524059777793e+02
-5.5609379624644637e+00 3.0571515154202222e+00 3.5007154235430471e+02
-5.7896614508911899e+00 3.1828933172485745e+00 3.4517642898801529e+02
-6.0183849393179170e+00 3.3086351190769268e+00 3.4038419349228542e+02
-6.2471084277446431e+00 3.4343769209052786e+00 3.3553837281266823e+02
-6.4758319161713702e+00 3.5601187227336308e+00 3.3075463594374253e+02
-6.7045554045980964e+00 3.6858605245619831e+00 3.2594177822438888e+02