variables="x","y","T"
zone t="Temperature" n=1000 e=950 et=quadrilateral f=fepoint
4.7950939598809903e+00 0.0000000000000000e+00 3.7300000000000000e+02
5.0690363830451490e+00 0.0000000000000000e+00 3.7047690568570431e+02
5.3429788062093069e+00 0.0000000000000000e+00 3.6606695253890530e+02
5.6169212293734656e+00 0.0000000000000000e+00 3.6184221697492995e+02
5.8908636525376235e+00 0.0000000000000000e+00 3.5713166555161462e+02
6.1648060757017822e+00 0.0000000000000000e+00 3.5245114247708409e+02
6.4387484988659409e+00 0.0000000000000000e+00 3.4758781350374710e+02
6.7126909220300988e+00 0.0000000000000000e+00 3.4272132521323499e+02
6.9866333451942575e+00 0.0000000000000000e+00 3.3779204269570670e+02
7.2605757683584162e+00 0.0000000000000000e+00 3.3284762277145273e+02
7.5345181915225741e+00 0.0000000000000000e+00 3.2788770159305079e+02
7.8084606146867328e+00 0.0000000000000000e+00 3.2290981584210743e+02
8.0824030378508915e+00 0.0000000000000000e+00 3.1793419635074360e+02
8.3563454610150494e+00 0.0000000000000000e+00 3.1294243296750574e+02
8.6302878841792072e+00 0.0000000000000000e+00 3.0795805302455909e+02
8.9042303073433651e+00 0.0000000000000000e+00 3.0296184844462249e+02
9.1781727305075247e+00 0.0000000000000000e+00 2.9797233749526555e+02
9.4521151536716843e+00 0.0000000000000000e+00 2.9297720555502070e+02
9.7260575768358422e+00 0.0000000000000000e+00 2.8798509233653937e+02
1.0000000000000000e+01 0.0000000000000000e+00 2.8300000000000000e+02
4.7861938966606008e+00 6.0463690008769033e-01 3.7300000000000000e+02
5.0564545870018733e+00 6.3877876511691933e-01 3.6870635226720600e+02
5.3267152773431459e+00 6.7292063014614834e-01 3.6514981172314918e+02
5.5969759676844184e+00 7.0706249517537745e-01 3.6077194379306366e+02
5.8672366580256909e+00 7.4120436020460656e-01 3.5636943962803190e+02
6.1374973483669635e+00 7.7534622523383567e-01 3.5166309367691576e+02
6.4077580387082360e+00 8.0948809026306467e-01 3.4693894136561443e+02
6.6780187290495086e+00 8.4362995529229368e-01 3.4210404444171144e+02
6.9482794193907802e+00 8.7777182032152279e-01 3.3724867823511761e+02
7.2185401097320536e+00 9.1191368535075190e-01 3.3235859486447504e+02
7.4888008000733262e+00 9.4605555037998090e-01 3.2744713447262620e+02
7.7590614904145987e+00 9.8019741540921002e-01 3.2253067312899503e+02
8.0293221807558712e+00 1.0143392804384392e+00 3.1759498797108711e+02
8.2995828710971438e+00 1.0484811454676681e+00 3.1266475189093995e+02
8.5698435614384163e+00 1.0826230104968972e+00 3.0771957341194701e+02
8.8401042517796888e+00 1.1167648755261264e+00 3.0278179069743169e+02
9.1103649421209614e+00 1.1509067405553552e+00 2.9783478873919330e+02
9.3806256324622321e+00 1.1850486055845844e+00 2.9289276791941938e+02
9.6508863228035064e+00 1.2191904706138135e+00 2.8794846963306350e+02
9.9211470131447790e+00 1.2533323356430426e+00 2.8300000000000000e+02
4.7531792648717408e+00 1.2204090082238155e+00 3.7300000000000000e+02
5.0127925462619816e+00 1.2870663694566962e+00 3.6961984328525284e+02
5.2724058276522214e+00 1.3537237306895766e+00 3.6496355013127408e+02
5.5320191090424622e+00 1.4203810919224573e+00 3.6041110666871839e+02
5.7916323904327029e+00 1.4870384531553382e+00 3.5559321403894279e+02
6.0512456718229437e+00 1.5536958143882187e+00 3.5084940028166136e+02
6.3108589532131836e+00 1.6203531756210994e+00 3.4601414411117781e+02
6.5704722346034243e+00 1.6870105368539801e+00 3.4120135876819336e+02
6.8300855159936642e+00 1.7536678980868605e+00 3.3636248564006019e+02
7.0896987973839058e+00 1.8203252593197414e+00 3.3152054130291543e+02
7.3493120787741457e+00 1.8869826205526221e+00 3.2667854819091679e+02
7.6089253601643865e+00 1.9536399817855026e+00 3.2182432529772353e+02
7.8685386415546272e+00 2.0202973430183833e+00 3.1697906665844880e+02
8.1281519229448662e+00 2.0869547042512639e+00 3.1212039134902022e+02
8.3877652043351087e+00 2.1536120654841446e+00 3.0727192770033321e+02
8.6473784857253495e+00 2.2202694267170253e+00 3.0241278552818130e+02
8.9069917671155885e+00 2.2869267879499060e+00 2.9756132579892852e+02
9.1666050485058292e+00 2.3535841491827862e+00 2.9270435196806238e+02
9.4262183298960700e+00 2.4202415104156669e+00 2.8785019899358446e+02
9.6858316112863108e+00 2.4868988716485481e+00 2.8300000000000000e+02
4.8103258398493498e+00 1.9045427314397796e+00 3.7300000000000000e+02
5.0465068408510954e+00 1.9980534048822534e+00 3.6729440175541384e+02
5.2826878418528409e+00 2.0915640783247267e+00 3.6219134958616110e+02
5.5188688428545865e+00 2.1850747517672007e+00 3.5714247530807336e+02
5.7550498438563311e+00 2.2785854252096742e+00 3.5236878313162936e+02
5.9912308448580776e+00 2.3720960986521482e+00 3.4759293352329587e+02
6.2274118458598222e+00 2.4656067720946213e+00 3.4292067728308990e+02
6.4635928468615678e+00 2.5591174455370953e+00 3.3825418087846896e+02
6.6997738478633142e+00 2.6526281189795693e+00 3.3361973402719849e+02
6.9359548488650589e+00 2.7461387924220428e+00 3.2899969998960921e+02
7.1721358498668035e+00 2.8396494658645164e+00 3.2438257318699596e+02
7.4083168508685500e+00 2.9331601393069899e+00 3.1978232340990581e+02
7.6444978518702955e+00 3.0266708127494639e+00 3.1517443210516512e+02
7.8806788528720402e+00 3.1201814861919375e+00 3.1058175193148668e+02
8.1168598538737857e+00 3.2136921596344110e+00 3.0597931557163122e+02
8.3530408548755322e+00 3.3072028330768850e+00 3.0138802244958862e+02
8.5892218558772768e+00 3.4007135065193586e+00 2.9678893657172671e+02
8.8254028568790233e+00 3.4942241799618325e+00 2.9219527354035262e+02
9.0615838578807679e+00 3.5877348534043061e+00 2.8759863122926527e+02
9.2977648588825126e+00 3.6812455268467796e+00 2.8300000000000000e+02
4.5648994235034008e+00 2.5095746948630890e+00 3.7300000000000000e+02
4.7858556012368352e+00 2.6310463815027769e+00 3.6680003760526313e+02
5.0068117789702677e+00 2.7525180681424644e+00 3.6150737517858761e+02
5.2277679567037012e+00 2.8739897547821518e+00 3.5659391531435494e+02
5.4487241344371347e+00 2.9954614414218397e+00 3.5174284638696611e+02
5.6696803121705681e+00 3.1169331280615271e+00 3.4704268838499075e+02
5.8906364899040016e+00 3.2384048147012146e+00 3.4236344961003232e+02
6.1115926676374350e+00 3.3598765013409024e+00 3.3774072117228752e+02
6.3325488453708685e+00 3.4813481879805899e+00 3.3313885951104908e+02
6.5535050231043019e+00 3.6028198746202773e+00 3.2855117771789611e+02
6.7744612008377354e+00 3.7242915612599652e+00 3.2398451404945354e+02
6.9954173785711680e+00 3.8457632478996522e+00 3.1941455393027957e+02
7.2163735563046023e+00 3.9672349345393405e+00 3.1486319983642750e+02
7.4373297340380358e+00 4.0887066211790275e+00 3.1030290958350287e+02
7.6582859117714683e+00 4.2101783078187154e+00 3.0575702652938890e+02
7.8792420895049027e+00 4.3316499944584033e+00 3.0120228404247365e+02
8.1001982672383352e+00 4.4531216810980903e+00 2.9665641929717577e+02
8.3211544449717696e+00 4.5745933677377790e+00 2.9210456047865864e+02
8.5421106227052022e+00 4.6960650543774660e+00 2.8755384848818306e+02
8.7630668004386365e+00 4.8175367410171530e+00 2.8300000000000000e+02
3.9812365876987816e+00 2.8925376950141093e+00 3.7300000000000000e+02
4.1974962380172398e+00 3.0496595280620369e+00 3.6953109746813408e+02
4.4137558883356967e+00 3.2067813611099640e+00 3.6483055022757969e+02
4.6300155386541544e+00 3.3639031941578921e+00 3.5997775681254552e+02
4.8462751889726112e+00 3.5210250272058188e+00 3.5514557050904494e+02
5.0625348392910690e+00 3.6781468602537468e+00 3.5028374827175566e+02
5.2787944896095267e+00 3.8352686933016744e+00 3.4545759982708728e+02
5.4950541399279835e+00 3.9923905263496016e+00 3.4063313780894970e+02
5.7113137902464421e+00 4.1495123593975292e+00 3.3581653240713740e+02
5.9275734405648999e+00 4.3066341924454568e+00 3.3101251883813438e+02
6.1438330908833567e+00 4.4637560254933843e+00 3.2620102565847230e+02
6.3600927412018144e+00 4.6208778585413119e+00 3.2140480535248298e+02
6.5763523915202722e+00 4.7779996915892395e+00 3.1659599140118530e+02
6.7926120418387290e+00 4.9351215246371662e+00 3.1180117591772608e+02
7.0088716921571859e+00 5.0922433576850938e+00 3.0699431750071574e+02
7.2251313424756436e+00 5.2493651907330205e+00 3.0219816228440141e+02
7.4413909927941022e+00 5.4064870237809490e+00 2.9739372519661009e+02
7.6576506431125599e+00 5.5636088568288775e+00 2.9259567573118642e+02
7.8739102934310177e+00 5.7207306898768042e+00 2.8779606733655993e+02
8.0901699437494745e+00 5.8778525229247318e+00 2.8300000000000000e+02
3.5197888996628359e+00 3.3053017840659771e+00 3.7300000000000000e+02
3.7182045509550083e+00 3.4916264827618142e+00 3.6863428881862859e+02
3.9166202022471817e+00 3.6779511814576522e+00 3.6446226819327728e+02
4.1150358535393536e+00 3.8642758801534893e+00 3.5997123586820260e+02
4.3134515048315265e+00 4.0506005788493269e+00 3.5536461325349393e+02
4.5118671561236994e+00 4.2369252775451640e+00 3.5068735491252721e+02
4.7102828074158722e+00 4.4232499762410020e+00 3.4595357357681843e+02
4.9086984587080442e+00 4.6095746749368391e+00 3.4118127531005280e+02
5.1071141100002171e+00 4.7958993736326763e+00 3.3639014715249476e+02
5.3055297612923900e+00 4.9822240723285134e+00 3.3156816663600506e+02
5.5039454125845628e+00 5.1685487710243514e+00 3.2674554839916777e+02
5.7023610638767348e+00 5.3548734697201885e+00 3.2189706948306679e+02
5.9007767151689077e+00 5.5411981684160256e+00 3.1705515320859024e+02
6.0991923664610805e+00 5.7275228671118636e+00 3.1219279700407657e+02
6.2976080177532534e+00 5.9138475658077008e+00 3.0733840749478833e+02
6.4960236690454263e+00 6.1001722645035388e+00 3.0246964712929071e+02
6.6944393203375983e+00 6.2864969631993750e+00 2.9760708962680394e+02
6.8928549716297693e+00 6.4728216618952121e+00 2.9273691700642792e+02
7.0912706229219422e+00 6.6591463605910493e+00 2.8786911048376339e+02
7.2896862742141160e+00 6.8454710592868873e+00 2.8300000000000000e+02
3.0523788930234002e+00 3.6896922564384371e+00 3.7300000000000000e+02
3.2272136827320050e+00 3.9010312128236717e+00 3.6843666638487235e+02
3.4020484724406099e+00 4.1123701692089059e+00 3.6399466725359611e+02
3.5768832621492153e+00 4.3237091255941404e+00 3.5970919998970419e+02
3.7517180518578201e+00 4.5350480819793750e+00 3.5524983701103156e+02
3.9265528415664250e+00 4.7463870383646096e+00 3.5070093718059672e+02
4.1013876312750304e+00 4.9577259947498442e+00 3.4604738429372998e+02
4.2762224209836361e+00 5.1690649511350788e+00 3.4134110214638014e+02
4.4510572106922401e+00 5.3804039075203125e+00 3.3656998177472974e+02
4.6258920004008459e+00 5.5917428639055480e+00 3.3177851917005245e+02
4.8007267901094508e+00 5.8030818202907817e+00 3.2694286321177799e+02
4.9755615798180557e+00 6.0144207766760172e+00 3.2210368151555974e+02
5.1503963695266606e+00 6.2257597330612509e+00 3.1723317007305531e+02
5.3252311592352664e+00 6.4370986894464854e+00 3.1236615691774966e+02
5.5000659489438721e+00 6.6484376458317209e+00 3.0747752349748475e+02
5.6749007386524761e+00 6.8597766022169546e+00 3.0259388581364811e+02
5.8497355283610810e+00 7.0711155586021883e+00 2.9769688971354185e+02
6.0245703180696859e+00 7.2824545149874238e+00 2.9280277195799295e+02
6.1994051077782917e+00 7.4937934713726584e+00 2.8790230647300933e+02
6.3742398974868966e+00 7.7051324277578921e+00 2.8300000000000000e+02
2.4760836077770194e+00 3.9016834460580956e+00 3.7300000000000000e+02
2.6277775205145426e+00 4.1407148044245190e+00 3.7003901082847500e+02
2.7794714332520662e+00 4.3797461627909433e+00 3.6638883002296558e+02
2.9311653459895894e+00 4.6187775211573667e+00 3.6208145309916659e+02
3.0828592587271131e+00 4.8578088795237910e+00 3.5761401148009884e+02
3.2345531714646367e+00 5.0968402378902153e+00 3.5292456710877423e+02
3.3862470842021599e+00 5.3358715962566388e+00 3.4815687894374508e+02
3.5379409969396836e+00 5.5749029546230631e+00 3.4328295316255895e+02
3.6896349096772072e+00 5.8139343129894874e+00 3.3837600121665560e+02
3.8413288224147308e+00 6.0529656713559108e+00 3.3340660527678114e+02
3.9930227351522540e+00 6.2919970297223351e+00 3.2842737725338759e+02
4.1447166478897772e+00 6.5310283880887585e+00 3.2340700087973664e+02
4.2964105606273009e+00 6.7700597464551828e+00 3.1838755492642309e+02
4.4481044733648245e+00 7.0090911048216062e+00 3.1334022946636702e+02
4.5997983861023473e+00 7.2481224631880306e+00 3.0829775795259025e+02
4.7514922988398718e+00 7.4871538215544557e+00 3.0323754376662004e+02
4.9031862115773954e+00 7.7261851799208792e+00 2.9818239868048363e+02
5.0548801243149191e+00 7.9652165382873035e+00 2.9311876264043173e+02
5.2065740370524418e+00 8.2042478966537278e+00 2.8805893689434276e+02
5.3582679497899655e+00 8.4432792550201512e+00 2.8300000000000000e+02
2.0401452032634251e+00 4.3355292458825669e+00 3.7300000000000000e+02
2.1568635039153885e+00 4.5835682605550740e+00 3.6981917009412058e+02
2.2735818045673515e+00 4.8316072752275803e+00 3.6551919811993241e+02
2.3903001052193149e+00 5.0796462899000874e+00 3.6106578819315729e+02
2.5070184058712779e+00 5.3276853045725936e+00 3.5633325835952627e+02
2.6237367065232413e+00 5.5757243192451007e+00 3.5160092755969913e+02
2.7404550071752043e+00 5.8237633339176069e+00 3.4676871447003975e+02
2.8571733078271677e+00 6.0718023485901140e+00 3.4194366854303655e+02
2.9738916084791311e+00 6.3198413632626211e+00 3.3706452657484596e+02
3.0906099091310941e+00 6.5678803779351282e+00 3.3219482141415165e+02
3.2073282097830571e+00 6.8159193926076345e+00 3.2728870928825467e+02
3.3240465104350205e+00 7.0639584072801416e+00 3.2239362853453270e+02
3.4407648110869840e+00 7.3119974219526487e+00 3.1747229777976668e+02
3.5574831117389469e+00 7.5600364366251549e+00 3.1256172843434524e+02
3.6742014123909108e+00 7.8080754512976629e+00 3.0763274525632221e+02
3.7909197130428729e+00 8.0561144659701664e+00 3.0271260694636698e+02
3.9076380136948368e+00 8.3041534806426753e+00 2.9778130086815423e+02
4.0243563143468002e+00 8.5521924953151824e+00 2.9285578644766690e+02
4.1410746149987627e+00 8.8002315099876878e+00 2.8792638348716224e+02
4.2577929156507270e+00 9.0482705246601967e+00 2.8300000000000000e+02
1.5871900757629942e+00 4.8848687665437094e+00 3.7300000000000000e+02
1.6662942793412301e+00 5.1283264716178056e+00 3.6732831051502643e+02
1.7453984829194660e+00 5.3717841766919019e+00 3.6238235875834317e+02
1.8245026864977014e+00 5.6152418817659973e+00 3.5745512315900493e+02
1.9036068900759373e+00 5.8586995868400935e+00 3.5276113497223292e+02
1.9827110936541732e+00 6.1021572919141898e+00 3.4802089371374825e+02
2.0618152972324091e+00 6.3456149969882860e+00 3.4337077180794881e+02
2.1409195008106447e+00 6.5890727020623823e+00 3.3868796789644074e+02
2.2200237043888809e+00 6.8325304071364785e+00 3.3405128694301715e+02
2.2991279079671165e+00 7.0759881122105748e+00 3.2938992447430081e+02
2.3782321115453522e+00 7.3194458172846701e+00 3.2475837230332456e+02
2.4573363151235879e+00 7.5629035223587664e+00 3.2010675209797500e+02
2.5364405187018235e+00 7.8063612274328618e+00 3.1547653301074934e+02
2.6155447222800596e+00 8.0498189325069571e+00 3.1083027299090503e+02
2.6946489258582953e+00 8.2932766375810534e+00 3.0619919861089335e+02
2.7737531294365310e+00 8.5367343426551496e+00 3.0155627629650451e+02
2.8528573330147671e+00 8.7801920477292459e+00 2.9692260385170835e+02
2.9319615365930027e+00 9.0236497528033421e+00 2.9228142419594019e+02
3.0110657401712388e+00 9.2671074578774384e+00 2.8764302000828047e+02
3.0901699437494745e+00 9.5105651629515346e+00 2.8300000000000000e+02
9.7398435393462801e-01 5.1058047884572355e+00 3.7300000000000000e+02
1.0213437640358183e+00 5.3540715105009014e+00 3.6758152579832409e+02
1.0687031741370088e+00 5.6023382325445672e+00 3.6235201991351784e+02
1.1160625842381990e+00 5.8506049545882330e+00 3.5751679840022183e+02
1.1634219943393895e+00 6.0988716766318998e+00 3.5263051456951837e+02
1.2107814044405798e+00 6.3471383986755647e+00 3.4791601087577527e+02
1.2581408145417703e+00 6.5954051207192315e+00 3.4316627326184550e+02
1.3055002246429608e+00 6.8436718427628964e+00 3.3850156550799102e+02
1.3528596347441511e+00 7.0919385648065623e+00 3.3381557065769647e+02
1.4002190448453415e+00 7.3402052868502290e+00 3.2917975650198207e+02
1.4475784549465320e+00 7.5884720088938948e+00 3.2452751355775496e+02
1.4949378650477223e+00 7.8367387309375607e+00 3.1990856801670964e+02
1.5422972751489126e+00 8.0850054529812265e+00 3.1527579639178646e+02
1.5896566852501031e+00 8.3332721750248933e+00 3.1066594124681632e+02
1.6370160953512931e+00 8.5815388970685564e+00 3.0604490932547634e+02
1.6843755054524836e+00 8.8298056191122232e+00 3.0143883485685382e+02
1.7317349155536741e+00 9.0780723411558899e+00 2.9682481870376256e+02
1.7790943256548641e+00 9.3263390631995549e+00 2.9221862147668571e+02
1.8264537357560551e+00 9.5746057852432234e+00 2.8760829094408075e+02
1.8738131458572451e+00 9.8228725072868865e+00 2.8300000000000000e+02
3.2187929704768981e-01 5.1161249212363522e+00 3.7300000000000000e+02
3.3798592327113414e-01 5.3721324140282656e+00 3.6854215271292776e+02
3.5409254949457858e-01 5.6281399068201798e+00 3.6389349017536165e+02
3.7019917571802291e-01 5.8841473996120932e+00 3.5891822549226606e+02
3.8630580194146730e-01 6.1401548924040075e+00 3.5410955426231970e+02
4.0241242816491174e-01 6.3961623851959217e+00 3.4920173484058751e+02
4.1851905438835607e-01 6.6521698779878351e+00 3.4441348288884524e+02
4.3462568061180046e-01 6.9081773707797485e+00 3.3958975256182333e+02
4.5073230683524479e-01 7.1641848635716627e+00 3.3483783237505713e+02
4.6683893305868923e-01 7.4201923563635770e+00 3.3006705221728367e+02
4.8294555928213362e-01 7.6761998491554904e+00 3.2534229115847683e+02
4.9905218550557801e-01 7.9322073419474046e+00 3.2060367197085969e+02
5.1515881172902234e-01 8.1882148347393180e+00 3.1589608651264672e+02
5.3126543795246672e-01 8.4442223275312323e+00 3.1117733340873764e+02
5.4737206417591111e-01 8.7002298203231465e+00 3.0647951921031148e+02
5.6347869039935550e-01 8.9562373131150590e+00 3.0177341629376355e+02
5.7958531662279988e-01 9.2122448059069733e+00 2.9708041781266616e+02
5.9569194284624427e-01 9.4682522986988875e+00 2.9238286124901811e+02
6.1179856906968866e-01 9.7242597914908018e+00 2.8769178303492720e+02
6.2790519529313304e-01 9.9802672842827160e+00 2.8300000000000000e+02
-3.2402733529818895e-01 5.1502670115352407e+00 3.7300000000000000e+02
-3.4002090687687025e-01 5.4044775522061608e+00 3.6828387904991814e+02
-3.5601447845555156e-01 5.6586880928770800e+00 3.6324136955447034e+02
-3.7200805003423293e-01 5.9128986335480000e+00 3.5845772575805705e+02
-3.8800162161291418e-01 6.1671091742189192e+00 3.5353066030661859e+02
-4.0399519319159555e-01 6.4213197148898393e+00 3.4878002689599197e+02
-4.1998876477027686e-01 6.6755302555607594e+00 3.4396313385553407e+02
-4.3598233634895822e-01 6.9297407962316795e+00 3.3924195022325961e+02
-4.5197590792763953e-01 7.1839513369025987e+00 3.3448772347495162e+02
-4.6796947950632078e-01 7.4381618775735179e+00 3.2979042893244849e+02
-4.8396305108500215e-01 7.6923724182444380e+00 3.2507238797083306e+02
-4.9995662266368346e-01 7.9465829589153580e+00 3.2039121523882119e+02
-5.1595019424236488e-01 8.2007934995862790e+00 3.1569490539636649e+02
-5.3194376582104619e-01 8.4550040402571973e+00 3.1102337466981226e+02
-5.4793733739972739e-01 8.7092145809281174e+00 3.0634053020501631e+02
-5.6393090897840870e-01 8.9634251215990357e+00 3.0167379250769557e+02
-5.7992448055709012e-01 9.2176356622699576e+00 2.9699948486423534e+02
-5.9591805213577143e-01 9.4718462029408776e+00 2.9233415573444353e+02
-6.1191162371445273e-01 9.7260567436117960e+00 2.8766548466020066e+02
-6.2790519529313404e-01 9.9802672842827160e+00 2.8300000000000000e+02
-9.7587180620196634e-01 5.1156991597432020e+00 3.7300000000000000e+02
-1.0231318767101392e+00 5.3634451254033966e+00 3.6712117137126455e+02
-1.0703919472183119e+00 5.6111910910635903e+00 3.6216443591629110e+02
-1.1176520177264846e+00 5.8589370567237848e+00 3.5720576078541603e+02
-1.1649120882346573e+00 6.1066830223839776e+00 3.5254885460467477e+02
-1.2121721587428300e+00 6.3544289880441722e+00 3.4779143703578023e+02
-1.2594322292510027e+00 6.6021749537043659e+00 3.4316517661079092e+02
-1.3066922997591754e+00 6.8499209193645596e+00 3.3847886011294855e+02
-1.3539523702673482e+00 7.0976668850247533e+00 3.3386032168315461e+02
-1.4012124407755209e+00 7.3454128506849470e+00 3.2920521611921703e+02
-1.4484725112836936e+00 7.5931588163451416e+00 3.2459064471224332e+02
-1.4957325817918665e+00 7.8409047820053352e+00 3.1995166049281988e+02
-1.5429926523000392e+00 8.0886507476655289e+00 3.1533923732744199e+02
-1.5902527228082119e+00 8.3363967133257226e+00 3.1070958924018834e+02
-1.6375127933163847e+00 8.5841426789859181e+00 3.0609762701602313e+02
-1.6847728638245572e+00 8.8318886446461100e+00 3.0147365620573873e+02
-1.7320329343327299e+00 9.0796346103063037e+00 2.9686019781056211e+02
-1.7792930048409028e+00 9.3273805759664974e+00 2.9223904442506699e+02
-1.8265530753490755e+00 9.5751265416266929e+00 2.8762150196966678e+02
-1.8738131458572482e+00 9.8228725072868865e+00 2.8300000000000000e+02
-1.5468987737478610e+00 4.7608648896403762e+00 3.7300000000000000e+02
-1.6281235721689986e+00 5.0108491145514904e+00 3.6878867139825735e+02
-1.7093483705901362e+00 5.2608333394626037e+00 3.6407500962470925e+02
-1.7905731690112738e+00 5.5108175643737178e+00 3.5953111147526892e+02
-1.8717979674324114e+00 5.7608017892848311e+00 3.5472157145797115e+02
-1.9530227658535491e+00 6.0107860141959453e+00 3.5004976692225620e+02
-2.0342475642746867e+00 6.2607702391070585e+00 3.4524951632702920e+02
-2.1154723626958241e+00 6.5107544640181709e+00 3.4051990739125404e+02
-2.1966971611169619e+00 6.7607386889292860e+00 3.3571976880111129e+02
-2.2779219595380993e+00 7.0107229138403984e+00 3.3095985078125420e+02
-2.3591467579592371e+00 7.2607071387515134e+00 3.2615752188606825e+02
-2.4403715563803745e+00 7.5106913636626258e+00 3.2138114364695440e+02
-2.5215963548015123e+00 7.7606755885737408e+00 3.1657746506993163e+02
-2.6028211532226497e+00 8.0106598134848532e+00 3.1179175211020106e+02
-2.6840459516437871e+00 8.2606440383959665e+00 3.0698809410488531e+02
-2.7652707500649250e+00 8.5106282633070798e+00 3.0219668076854623e+02
-2.8464955484860632e+00 8.7606124882181948e+00 2.9739435539225428e+02
-2.9277203469072002e+00 9.0105967131293081e+00 2.9259923177981409e+02
-3.0089451453283376e+00 9.2605809380404214e+00 2.8779901578520480e+02
-3.0901699437494754e+00 9.5105651629515346e+00 2.8300000000000000e+02
-2.0411246577711868e+00 4.3376106926622464e+00 3.7300000000000000e+02
-2.1577914081858998e+00 4.5855401575042443e+00 3.7008339981868028e+02
-2.2744581586006123e+00 4.8334696223462412e+00 3.6624924586595262e+02
-2.3911249090153248e+00 5.0813990871882391e+00 3.6167945052433851e+02
-2.5077916594300373e+00 5.3293285520302351e+00 3.5715273465858712e+02
-2.6244584098447503e+00 5.5772580168722330e+00 3.5233422770890843e+02
-2.7411251602594628e+00 5.8251874817142308e+00 3.4755867345960655e+02
-2.8577919106741754e+00 6.0731169465562278e+00 3.4264340577429221e+02
-2.9744586610888879e+00 6.3210464113982239e+00 3.3775868436844229e+02
-3.0911254115036004e+00 6.5689758762402217e+00 3.3279931015720274e+02
-3.2077921619183134e+00 6.8169053410822196e+00 3.2786195953588168e+02
-3.3244589123330259e+00 7.0648348059242165e+00 3.2288111848108809e+02
-3.4411256627477389e+00 7.3127642707662144e+00 3.1791687560278416e+02
-3.5577924131624510e+00 7.5606937356082105e+00 3.1292582029235331e+02
-3.6744591635771640e+00 7.8086232004502083e+00 3.0794732299883515e+02
-3.7911259139918760e+00 8.0565526652922035e+00 3.0295253722589183e+02
-3.9077926644065886e+00 8.3044821301342022e+00 2.9796667888753672e+02
-4.0244594148213020e+00 8.5524115949761992e+00 2.9297289575184226e+02
-4.1411261652360141e+00 8.8003410598181979e+00 2.8798544995162644e+02
-4.2577929156507270e+00 9.0482705246601949e+00 2.8300000000000000e+02
-2.6574331363114556e+00 4.1874445775525544e+00 3.7300000000000000e+02
-2.7995823370208512e+00 4.4114358763666379e+00 3.6835567010484806e+02
-2.9417315377302464e+00 4.6354271751807223e+00 3.6375952515463314e+02
-3.0838807384396416e+00 4.8594184739948059e+00 3.5947789821741139e+02
-3.2260299391490377e+00 5.0834097728088903e+00 3.5483284633060345e+02
-3.3681791398584329e+00 5.3074010716229738e+00 3.5026831450759147e+02
-3.5103283405678281e+00 5.5313923704370582e+00 3.4552031317232831e+02
-3.6524775412772237e+00 5.7553836692511418e+00 3.4082042225244402e+02
-3.7946267419866193e+00 5.9793749680652262e+00 3.3602394167156444e+02
-3.9367759426960145e+00 6.2033662668793106e+00 3.3125931120142656e+02
-4.0789251434054101e+00 6.4273575656933941e+00 3.2644006036613399e+02
-4.2210743441148049e+00 6.6513488645074776e+00 3.2164288735846031e+02
-4.3632235448242005e+00 6.8753401633215612e+00 3.1681264612197350e+02
-4.5053727455335961e+00 7.0993314621356456e+00 3.1199829633768911e+02
-4.6475219462429909e+00 7.3233227609497291e+00 3.0716327323680071e+02
-4.7896711469523874e+00 7.5473140597638144e+00 3.0233939076644742e+02
-4.9318203476617830e+00 7.7713053585778979e+00 2.9750319342826526e+02
-5.0739695483711778e+00 7.9952966573919824e+00 2.9267333621546481e+02
-5.2161187490805734e+00 8.2192879562060650e+00 2.8783683857059913e+02
-5.3582679497899690e+00 8.4432792550201494e+00 2.8300000000000000e+02
-3.2043833941588624e+00 3.8734341346388121e+00 3.7300000000000000e+02
-3.3712179469656012e+00 4.0751024658556059e+00 3.6833490008927095e+02
-3.5380524997723404e+00 4.2767707970724000e+00 3.6402943574190340e+02
-3.7048870525790787e+00 4.4784391282891933e+00 3.5919807459436328e+02
-3.8717216053858174e+00 4.6801074595059875e+00 3.5457150019566603e+02
-4.0385561581925558e+00 4.8817757907227808e+00 3.4975942769303015e+02
-4.2053907109992945e+00 5.0834441219395741e+00 3.4505931865368285e+02
-4.3722252638060333e+00 5.2851124531563682e+00 3.4026076535696541e+02
-4.5390598166127720e+00 5.4867807843731615e+00 3.3552676951404186e+02
-4.7058943694195108e+00 5.6884491155899557e+00 3.3073595808623548e+02
-4.8727289222262495e+00 5.8901174468067499e+00 3.2598407858391681e+02
-5.0395634750329883e+00 6.0917857780235432e+00 3.2119741885368973e+02
-5.2063980278397270e+00 6.2934541092403364e+00 3.1643569657115847e+02
-5.3732325806464649e+00 6.4951224404571297e+00 3.1165159485794982e+02
-5.5400671334532037e+00 6.6967907716739239e+00 3.0688398212384487e+02
-5.7069016862599433e+00 6.8984591028907181e+00 3.0210205285736873e+02
-5.8737362390666821e+00 7.1001274341075122e+00 2.9733046689759021e+02
-6.0405707918734208e+00 7.3017957653243055e+00 2.9255103070771497e+02
-6.2074053446801587e+00 7.5034640965410988e+00 2.8777684984597460e+02
-6.3742398974868975e+00 7.7051324277578921e+00 2.8300000000000000e+02
-3.7359574363113626e+00 3.5082975517700410e+00 3.7300000000000000e+02
-3.9229957962009814e+00 3.6839382626919805e+00 3.6884980088369855e+02
-4.1100341560905997e+00 3.8595789736139192e+00 3.6353475963641898e+02
-4.2970725159802186e+00 4.0352196845358588e+00 3.5870780079660130e+02
-4.4841108758698374e+00 4.2108603954577974e+00 3.5373557412968120e+02
-4.6711492357594562e+00 4.3865011063797370e+00 3.4898572053934026e+02
-4.8581875956490750e+00 4.5621418173016766e+00 3.4415504217121969e+02
-5.0452259555386929e+00 4.7377825282236152e+00 3.3944304452261429e+02
-5.2322643154283117e+00 4.9134232391455548e+00 3.3467903449199133e+02
-5.4193026753179305e+00 5.0890639500674935e+00 3.2998171713655228e+02
-5.6063410352075485e+00 5.2647046609894321e+00 3.2525106916764719e+02
-5.7933793950971673e+00 5.4403453719113717e+00 3.2056007543102226e+02
-5.9804177549867861e+00 5.6159860828333112e+00 3.1584694072987310e+02
-6.1674561148764049e+00 5.7916267937552508e+00 3.1115860178237352e+02
-6.3544944747660237e+00 5.9672675046771895e+00 3.0645517436161310e+02
-6.5415328346556416e+00 6.1429082155991281e+00 3.0176719513088597e+02
-6.7285711945452604e+00 6.3185489265210668e+00 2.9706952462585787e+02
-6.9156095544348792e+00 6.4941896374430064e+00 2.9238041184658869e+02
-7.1026479143244980e+00 6.6698303483649459e+00 2.8768722798713605e+02
-7.2896862742141169e+00 6.8454710592868846e+00 2.8300000000000000e+02
-4.2772450249492611e+00 3.1076004133249899e+00 3.7300000000000000e+02
-4.4779252838334820e+00 3.2534031559355023e+00 3.6621355173221832e+02
-4.6786055427177047e+00 3.3992058985460156e+00 3.6129794220400203e+02
-4.8792858016019256e+00 3.5450086411565280e+00 3.5630103299875833e+02
-5.0799660604861474e+00 3.6908113837670409e+00 3.5163534775518303e+02
-5.2806463193703692e+00 3.8366141263775537e+00 3.4688249386820718e+02
-5.4813265782545910e+00 3.9824168689880666e+00 3.4229041335059958e+02
-5.6820068371388128e+00 4.1282196115985794e+00 3.3763643251200210e+02
-5.8826870960230346e+00 4.2740223542090918e+00 3.3307334073509247e+02
-6.0833673549072564e+00 4.4198250968196042e+00 3.2847106033568650e+02
-6.2840476137914782e+00 4.5656278394301175e+00 3.2392249142218162e+02
-6.4847278726756992e+00 4.7114305820406299e+00 3.1934885720055013e+02
-6.6854081315599219e+00 4.8572333246511432e+00 3.1480843849819684e+02
-6.8860883904441437e+00 5.0030360672616556e+00 3.1025115991403885e+02
-7.0867686493283646e+00 5.1488388098721689e+00 3.0571482485015616e+02
-7.2874489082125864e+00 5.2946415524826813e+00 3.0116697934068861e+02
-7.4881291670968073e+00 5.4404442950931937e+00 2.9663130329466782e+02
-7.6888094259810309e+00 5.5862470377037070e+00 2.9208805001472928e+02
-7.8894896848652518e+00 5.7320497803142203e+00 2.8754829997021062e+02
-8.0901699437494727e+00 5.8778525229247327e+00 2.8300000000000000e+02
-4.4145430915666211e+00 2.4269156018942035e+00 3.7300000000000000e+02
-4.6434127604546225e+00 2.5527377671112008e+00 3.6957617584344933e+02
-4.8722824293426230e+00 2.6785599323281981e+00 3.6462272873797201e+02
-5.1011520982306235e+00 2.8043820975451954e+00 3.5987781734912329e+02
-5.3300217671186250e+00 2.9302042627621927e+00 3.5492132648092831e+02
-5.5588914360066246e+00 3.0560264279791900e+00 3.5012329012074673e+02
-5.7877611048946260e+00 3.1818485931961873e+00 3.4522192775486741e+02
-6.0166307737826266e+00 3.3076707584131846e+00 3.4042728940979191e+02
-6.2455004426706271e+00 3.4334929236301819e+00 3.3557505213782468e+02
-6.4743701115586285e+00 3.5593150888471792e+00 3.3078962574887089e+02
-6.7032397804466290e+00 3.6851372540641765e+00 3.2597079291108241e+02